material_id,pretty_formula,count_unique_TM,count_TM,count_unique_C,count_C,consensus_formula,caxis
mp-20594,CeS2,1,1,1,2,CeS2,16.093054000000002
mp-1087555,CeSe2,1,1,1,2,CeSe2,16.559798999999998
mp-1087553,CeSe2,1,1,1,2,CeSe2,17.629417999999998
mp-1080860,CeSe2,1,1,1,2,CeSe2,15.251210999999998
mp-1080639,CeSe2,1,1,1,2,CeSe2,23.503535999999997
mp-1080634,CeSe2,1,1,1,2,CeSe2,47.068391999999996
mp-1080309,CeSe2,1,1,1,2,CeSe2,26.608490999999997
mp-1080313,CeSe2,1,1,1,2,CeSe2,37.385676000000004
mp-1087242,CeSe2,1,1,1,2,CeSe2,34.676503000000004
mp-1080357,CeSe2,1,1,1,2,CeSe2,15.742773999999999
mp-1011374,CeSe2,1,1,1,2,CeSe2,19.160707000000002
mvc-13555,CrS2,1,1,1,2,CrS2,23.074823000000002
mp-2833,IrS2,1,1,1,2,IrS2,20.041695999999998
mp-1434,MoS2,1,1,1,2,MoS2,19.810423999999998
mp-1023924,MoS2,1,1,1,2,MoS2,17.439501999999997
mp-1023939,MoS2,1,1,1,2,MoS2,24.879004000000002
mp-1027492,MoSeS,1,1,2,2,MoSSe,36.845197999999996
mp-1023934,MoSe2,1,1,1,2,MoSe2,17.725711999999998
mp-1634,MoSe2,1,1,1,2,MoSe2,15.451423000000002
mp-1027692,MoSe2,1,1,1,2,MoSe2,40.902846000000004
mp-1023940,MoSe2,1,1,1,2,MoSe2,25.451423000000002
mp-1030709,TeMoSe,1,1,2,2,MoSeTe,39.074715999999995
mp-1023938,Te2Mo,1,1,1,2,MoTe2,25.346645000000002
mp-1030319,Te2Mo,1,1,1,2,MoTe2,40.693290000000005
mp-1072712,NbS2,1,1,1,2,NbS2,17.462120000000002
mp-571133,NbSe2,1,1,1,2,NbSe2,28.215334000000002
mp-7007,NbSe2,1,1,1,2,NbSe2,24.677954999999997
mp-1102379,ReSe2,1,1,1,2,ReSe2,25.923916000000002
mp-1192175,RhSe2,1,1,1,2,RhSe2,21.222951000000002
mp-501,TaSe2,1,1,1,2,TaSe2,27.248077000000002
mp-849080,VS2,1,1,1,2,VS2,22.243373000000002
mp-1025571,WS2,1,1,1,2,WS2,31.303603000000003
mp-1028663,WSeS,1,1,2,2,WSSe,36.894026000000004
mp-1028690,TeWS,1,1,2,2,WSTe,38.390316999999996
mp-1028604,TeWS,1,1,2,2,WSTe,38.368303000000004
mp-1023933,WSe2,1,1,1,2,WSe2,25.068951000000002
mp-22693,Te2W,1,1,1,2,WTe2,15.431851000000002
mp-1023942,Te2W,1,1,1,2,WTe2,25.054129999999997