material_id,pretty_formula,space_group,count_unique_TM,count_TM,count_unique_C,count_C,consensus_formula,caxis
mp-20123,Te2Au,Pma2,1,1,1,2,AuTe2,16.879993
mp-20594,CeS2,Pnma,1,1,1,2,CeS2,16.093054000000002
mp-1080369,CeSe2,Ia-3d,1,1,1,2,CeSe2,17.132543
mp-1096432,CeSe2,Ia-3,1,1,1,2,CeSe2,19.282155
mp-1096430,CeSe2,Pmc2_1,1,1,1,2,CeSe2,16.471908
mp-1087555,CeSe2,I432,1,1,1,2,CeSe2,16.559798999999998
mp-1087553,CeSe2,Pbcn,1,1,1,2,CeSe2,17.629417999999998
mp-1087552,CeSe2,Pmmn,1,1,1,2,CeSe2,36.805563
mp-1080860,CeSe2,I4/mcm,1,1,1,2,CeSe2,15.251210999999998
mp-1080858,CeSe2,R-3c,1,1,1,2,CeSe2,51.076282
mp-1080852,CeSe2,Pa-3,1,1,1,2,CeSe2,17.542327
mp-1080639,CeSe2,C222,1,1,1,2,CeSe2,23.503535999999997
mp-1080638,CeSe2,P6_3/mcm,1,1,1,2,CeSe2,15.143088
mp-1080637,CeSe2,P4_2/mmc,1,1,1,2,CeSe2,22.810106
mp-1080634,CeSe2,I4_1/amd,1,1,1,2,CeSe2,47.068391999999996
mp-1080631,CeSe2,I4/mcm,1,1,1,2,CeSe2,17.54715
mp-1080375,CeSe2,Pm-3n,1,1,1,2,CeSe2,18.118078
mp-1080374,CeSe2,Imma,1,1,1,2,CeSe2,34.286799
mp-1080370,CeSe2,P2_12_12,1,1,1,2,CeSe2,19.299617
mp-1080269,CeSe2,Ima2,1,1,1,2,CeSe2,17.235631
mp-1080364,CeSe2,Pnnn,1,1,1,2,CeSe2,15.532657
mp-1080360,CeSe2,Fd-3m,1,1,1,2,CeSe2,25.613924
mp-1098702,CeSe2,P6_3/mmc,1,1,1,2,CeSe2,23.856361
mp-1098703,CeSe2,I2_12_12_1,1,1,1,2,CeSe2,25.788715
mp-1099574,CeSe2,C2/m,1,1,1,2,CeSe2,22.540672
mp-1099575,CeSe2,Imma,1,1,1,2,CeSe2,39.610582
mp-1040452,CeSe2,Fmm2,1,1,1,2,CeSe2,24.28906
mp-1080298,CeSe2,Fddd,1,1,1,2,CeSe2,33.861071
mp-1080309,CeSe2,P6_3mc,1,1,1,2,CeSe2,26.608490999999997
mp-1080313,CeSe2,R-3m,1,1,1,2,CeSe2,37.385676000000004
mp-1080345,CeSe2,P-6m2,1,1,1,2,CeSe2,26.132118
mp-1022717,CeSe2,P6_3/mmc,1,1,1,2,CeSe2,25.692012
mp-1080352,CeSe2,I4_1/amd,1,1,1,2,CeSe2,34.694445
mp-1080355,CeSe2,Fm-3m,1,1,1,2,CeSe2,32.153577
mp-1080356,CeSe2,Fmmm,1,1,1,2,CeSe2,30.393101
mp-1080363,CeSe2,P4_2/mbc,1,1,1,2,CeSe2,16.47984
mp-1080629,CeSe2,Immm,1,1,1,2,CeSe2,32.38622
mp-1080636,CeSe2,R-3,1,1,1,2,CeSe2,32.309371
mp-1080851,CeSe2,Pbcn,1,1,1,2,CeSe2,21.621693
mp-1080859,CeSe2,I4_1/acd,1,1,1,2,CeSe2,23.291546
mp-1080863,CeSe2,R-3m,1,1,1,2,CeSe2,25.085196
mp-1080867,CeSe2,P-1,1,1,1,2,CeSe2,18.743095
mp-1087242,CeSe2,I4_1/amd,1,1,1,2,CeSe2,34.676503000000004
mp-1094151,CeSe2,P6_3/mmc,1,1,1,2,CeSe2,17.308944
mp-1096431,CeSe2,P-1,1,1,1,2,CeSe2,21.855916
mp-1100189,CeSe2,Fd-3m,1,1,1,2,CeSe2,33.675646
mp-1100266,CeSe2,P6/mmm,1,1,1,2,CeSe2,19.432253
mp-1080359,CeSe2,I2_13,1,1,1,2,CeSe2,16.563215
mp-1080357,CeSe2,Pban,1,1,1,2,CeSe2,15.742773999999999
mp-1080275,CeSe2,Ibam,1,1,1,2,CeSe2,15.155017
mp-1080337,CeSe2,R-3m,1,1,1,2,CeSe2,18.786196
mp-1080325,CeSe2,P-6m2,1,1,1,2,CeSe2,26.813807
mp-1080305,CeSe2,R3m,1,1,1,2,CeSe2,39.629707
mp-1080288,CeSe2,I4_122,1,1,1,2,CeSe2,18.364012
mp-1080273,CeSe2,Fddd,1,1,1,2,CeSe2,24.794917
mp-1080354,CeSe2,I4_122,1,1,1,2,CeSe2,37.398459
mp-1011374,CeSe2,R3m,1,1,1,2,CeSe2,19.160707000000002
mp-1247786,CeSe2,Cmc2_1,1,1,1,2,CeSe2,39.328855
mvc-11233,CoS2,R-3m,1,1,1,2,CoS2,21.300376
mvc-13555,CrS2,R-3m,1,1,1,2,CrS2,23.074823000000002
mvc-11234,FeS2,R-3m,1,1,1,2,FeS2,21.658569
mp-2833,IrS2,Pnma,1,1,1,2,IrS2,20.041695999999998
mp-1361,IrSe2,Pnma,1,1,1,2,IrSe2,21.262684
mp-569388,Te2Ir,Pnma,1,1,1,2,IrTe2,22.916824
mp-1508,LaS2,Pnma,1,1,1,2,LaS2,16.40778
mvc-14047,MnS2,R-3m,1,1,1,2,MnS2,22.022067
mvc-11780,MoS2,F-43m,1,1,1,2,MoS2,16.584851
mp-1434,MoS2,R3m,1,1,1,2,MoS2,19.810423999999998
mp-1027525,MoS2,P-3m1,1,1,1,2,MoS2,39.758009
mp-1025874,MoS2,P-6m2,1,1,1,2,MoS2,32.318506
mp-990083,MoS2,Pmmn,1,1,1,2,MoS2,43.476517
mp-1023924,MoS2,P-6m2,1,1,1,2,MoS2,17.439501999999997
mp-1023939,MoS2,P-3m1,1,1,1,2,MoS2,24.879004000000002
mp-1027492,MoSeS,P-3m1,1,1,2,2,MoSSe,36.845197999999996
mp-1023953,MoSeS,P3m1,1,1,2,2,MoSSe,22.986058
mp-1018806,MoSeS,Amm2,1,1,2,2,MoSSe,19.532273
mp-1026916,MoSeS,P-3m1,1,1,2,2,MoSSe,36.821553
mp-1027687,MoSeS,P3m1,1,1,2,2,MoSSe,36.45187
mp-1027580,MoSeS,P3m1,1,1,2,2,MoSSe,36.841711
mp-1027358,TeMoS,P-3m1,1,1,2,2,MoSTe,39.742531
mp-1023959,TeMoS,P3m1,1,1,2,2,MoSTe,23.86942
mp-1027738,TeMoS,P3m1,1,1,2,2,MoSTe,39.730027
mp-1030461,TeMoS,P-3m1,1,1,2,2,MoSTe,38.270308
mp-1027412,TeMoS,P3m1,1,1,2,2,MoSTe,38.226936
mp-1023934,MoSe2,P-6m2,1,1,1,2,MoSe2,17.725711999999998
mp-1634,MoSe2,P6_3/mmc,1,1,1,2,MoSe2,15.451423000000002
mp-1025799,MoSe2,P-6m2,1,1,1,2,MoSe2,33.177135
mp-7581,MoSe2,R3m,1,1,1,2,MoSe2,22.087988
mp-1027692,MoSe2,P-3m1,1,1,1,2,MoSe2,40.902846000000004
mp-1023940,MoSe2,P-3m1,1,1,1,2,MoSe2,25.451423000000002
mp-1027683,TeMoSe,P3m1,1,1,2,2,MoSeTe,39.07257
mp-1023948,TeMoSe,P3m1,1,1,2,2,MoSeTe,24.365285
mp-1030709,TeMoSe,P-3m1,1,1,2,2,MoSeTe,39.074715999999995
mp-1030393,TeMoSe,P-3m1,1,1,2,2,MoSeTe,39.03685
mp-1030732,TeMoSe,P3m1,1,1,2,2,MoSeTe,39.052192
mp-602,Te2Mo,P6_3/mmc,1,1,1,2,MoTe2,15.346645
mp-1023935,Te2Mo,P-6m2,1,1,1,2,MoTe2,17.673323
mp-1023938,Te2Mo,P-3m1,1,1,1,2,MoTe2,25.346645000000002
mp-1025576,Te2Mo,P-6m2,1,1,1,2,MoTe2,33.019968
mp-1030319,Te2Mo,P-3m1,1,1,1,2,MoTe2,40.693290000000005
mp-1802,NbS2,R-3m,1,1,1,2,NbS2,20.021006
mp-1072712,NbS2,P6_3/mmc,1,1,1,2,NbS2,17.462120000000002
mp-554074,NbS2,Cmc2_1,1,1,1,2,NbS2,39.328969
mp-2648,NbS2,Fmm2,1,1,1,2,NbS2,22.979454
mp-966,NbS2,R3m,1,1,1,2,NbS2,20.45165
mp-571133,NbSe2,P-6m2,1,1,1,2,NbSe2,28.215334000000002
mp-1102559,NbSe2,P6_3/mmc,1,1,1,2,NbSe2,25.872656
mp-7007,NbSe2,Fmm2,1,1,1,2,NbSe2,24.677954999999997
mp-7597,NbSe2,R3m,1,1,1,2,NbSe2,20.902414
mp-672271,NbSe2,P-6m2,1,1,1,2,NbSe2,29.273519
mp-643063,NbSe2,P-6m2,1,1,1,2,NbSe2,26.572188
mp-571270,NbSe2,P-6m2,1,1,1,2,NbSe2,26.396804
mp-568347,NbSe2,C222_1,1,1,1,2,NbSe2,37.795115
mp-1186234,NbSe2,Amm2,1,1,1,2,NbSe2,26.450009
mvc-11598,NiS2,R-3m,1,1,1,2,NiS2,21.275437
mp-1120759,PdSe2,P2_1/c,1,1,1,2,PdSe2,20.191643
mp-17329,PrS2,Pnma,1,1,1,2,PrS2,16.366733
mp-1102379,ReSe2,P-6m2,1,1,1,2,ReSe2,25.923916000000002
mp-1192175,RhSe2,Pnma,1,1,1,2,RhSe2,21.222951000000002
mp-555037,TaS2,R-3m,1,1,1,2,TaS2,20.308941
mp-16226,TaS2,R3m,1,1,1,2,TaS2,39.292325
mp-1411,TaS2,Fmm2,1,1,1,2,TaS2,22.49653
mp-1217915,TaS2,Cmcm,1,1,1,2,TaS2,23.61405
mp-1179413,TaS2,P6/mmm,1,1,1,2,TaS2,18.796282
mp-10014,TaS2,R3m,1,1,1,2,TaS2,20.464008
mp-1072086,TaS2,P6_3/mmc,1,1,1,2,TaS2,17.691022
mp-567724,TaSe2,R-3m,1,1,1,2,TaSe2,21.566423
mp-637232,TaSe2,P-6m2,1,1,1,2,TaSe2,27.360883
mp-680184,TaSe2,P6_3/m,1,1,1,2,TaSe2,27.353532
mp-7926,TaSe2,P6_3mc,1,1,1,2,TaSe2,28.52158
mp-13870,TaSe2,R3m,1,1,1,2,TaSe2,40.812689
mp-8954,TaSe2,Fmm2,1,1,1,2,TaSe2,24.460957
mp-501,TaSe2,P6_3/mmc,1,1,1,2,TaSe2,27.248077000000002
mp-7834,TaSe2,R3m,1,1,1,2,TaSe2,21.280504
mp-1216778,TiS2,R3m,1,1,1,2,TiS2,17.982754
mp-1101258,TiS2,P-3m1,1,1,1,2,TiS2,20.182872
mp-558110,TiS2,R-3m,1,1,1,2,TiS2,21.557672
mp-1013526,VS2,R-3m,1,1,1,2,VS2,19.290115
mp-557523,VS2,P6_3/mmc,1,1,1,2,VS2,22.794369
mp-655446,VS2,P1,1,1,1,2,VS2,24.12237
mp-849080,VS2,P1,1,1,1,2,VS2,22.243373000000002
mp-611224,VS2,P1,1,1,1,2,VS2,23.532322
mvc-11241,VS2,R-3m,1,1,1,2,VS2,22.560003
mp-1023937,WS2,P-6m2,1,1,1,2,WS2,17.101201
mp-1025571,WS2,P-6m2,1,1,1,2,WS2,31.303603000000003
mp-9813,WS2,R3m,1,1,1,2,WS2,21.363028
mp-1023925,WS2,P-3m1,1,1,1,2,WS2,24.202402
mp-1028441,WS2,P-3m1,1,1,1,2,WS2,38.404804
mp-1028772,WSeS,P-3m1,1,1,2,2,WSSe,36.90233
mp-1028764,WSeS,P3m1,1,1,2,2,WSSe,36.852445
mp-1028663,WSeS,P-3m1,1,1,2,2,WSSe,36.894026000000004
mp-1028488,WSeS,P3m1,1,1,2,2,WSSe,36.93006
mp-1023929,WSeS,P3m1,1,1,2,2,WSSe,23.022902
mp-1028690,TeWS,P3m1,1,1,2,2,WSTe,38.390316999999996
mp-1028761,TeWS,P-3m1,1,1,2,2,WSTe,39.39591
mp-1023931,TeWS,P3m1,1,1,2,2,WSTe,23.968878
mp-1028604,TeWS,P-3m1,1,1,2,2,WSTe,38.368303000000004
mp-1028526,TeWS,P3m1,1,1,2,2,WSTe,39.389245
mp-1028698,WSe2,P-3m1,1,1,1,2,WSe2,40.137901
mp-1023933,WSe2,P-3m1,1,1,1,2,WSe2,25.068951000000002
mp-1821,WSe2,P6_3/mmc,1,1,1,2,WSe2,15.068951
mp-1023936,WSe2,P-6m2,1,1,1,2,WSe2,17.527085
mp-1025572,WSe2,P-6m2,1,1,1,2,WSe2,32.590385
mp-1028589,TeWSe,P-3m1,1,1,2,2,WSeTe,39.186898
mp-1023943,TeWSe,P3m1,1,1,2,2,WSeTe,24.474129
mp-1028459,TeWSe,P-3m1,1,1,2,2,WSeTe,39.211083
mp-1028749,TeWSe,P3m1,1,1,2,2,WSeTe,39.193603
mp-1028456,TeWSe,P3m1,1,1,2,2,WSeTe,39.192875
mp-1023926,Te2W,P-6m2,1,1,1,2,WTe2,17.516133
mp-22693,Te2W,Pmn2_1,1,1,1,2,WTe2,15.431851000000002
mp-1019322,Te2W,P6_3/mmc,1,1,1,2,WTe2,15.117308
mp-1028586,Te2W,P-3m1,1,1,1,2,WTe2,40.139184
mp-1023942,Te2W,P-3m1,1,1,1,2,WTe2,25.054129999999997
mp-1025573,Te2W,P-6m2,1,1,1,2,WTe2,32.588478