material_id,formula,space_group,nsites,count_unique_TM,count_TM,count_unique_C,count_C,consensus_formula,ab_angle(degree),caxis
mp-1194253,Hf9W4Se,P6_3/mmc,28,2,13,1,1,Hf9W4Se,120.00000253304982,8.656216
mp-1194359,U8MnSe17,C2/m,26,2,9,1,17,MnU8Se17,90.0,-10.656583
mp-1195333,Nd2ZrSe5,Pnma,32,2,3,1,5,Nd2ZrSe5,90.0,12.181868
mp-1196235,Sm2USe5,Pnma,32,2,3,1,5,Sm2USe5,90.0,12.380181
mp-1197091,Ta4NiTe4,Pbam,36,2,5,1,4,NiTa4Te4,90.0,18.658014
mp-1197516,La2HfSe5,Pnma,32,2,3,1,5,HfLa2Se5,90.0,12.315802
mp-1197597,Ta4CrTe4,Pbam,36,2,5,1,4,CrTa4Te4,90.0,18.777723
mp-1198610,Nb4FeTe4,Pbam,36,2,5,1,4,FeNb4Te4,90.0,18.469974
mp-1198974,La2ThSe5,Pnma,32,2,3,1,5,La2ThSe5,90.0,12.610008
mp-1199549,Ta4CoTe4,Pbam,36,2,5,1,4,CoTa4Te4,90.0,18.458264
mp-1200071,Gd2ZrSe5,Pnma,32,2,3,1,5,Gd2ZrSe5,90.0,12.184363
mp-1200172,Pr2USe5,Pnma,32,2,3,1,5,Pr2USe5,90.0,12.461253
mp-1201001,Y5(NiTe)2,Pnma,36,2,6,1,1,NiY5Te,90.0,15.812051
mp-1201577,Nd2USe5,Pnma,32,2,3,1,5,Nd2USe5,90.0,12.425819
mp-1201635,Tb2ZrSe5,Pnma,32,2,3,1,5,Tb2ZrSe5,90.0,12.195301
mp-1203241,Sc6Te2Pd,Pnma,36,2,7,1,2,PdSc6Te2,90.0,20.403497
mp-1205898,Sc6Te2Ru,P-62m,9,2,7,1,2,RuSc6Te2,120.00000553637129,3.850045
mp-1205985,Zr6Te2Pt,P-62m,9,2,7,1,2,PtZr6Te2,119.99999976990024,3.789577
mp-1206192,Y7(TeAu)2,Imm2,11,2,8,1,1,AuY7Te,90.0,15.706918
mp-1206500,Sc6MnTe2,P-62m,9,2,7,1,2,MnSc6Te2,119.99999680709743,3.873788
mp-1206619,Dy7(TePt)2,Imm2,11,2,8,1,1,Dy7PtTe,90.0,15.724498
mp-1206893,Sc6Te2Ir,P-62m,9,2,7,1,2,IrSc6Te2,119.99999359775629,3.818246
mp-1207773,Y5(NiTe)2,Cmcm,18,2,6,1,1,NiY5Te,90.0,15.035165
mp-1207784,Y5(CoTe)2,Cmcm,18,2,6,1,1,CoY5Te,90.0,15.021069
mp-1208241,Ti4FeSe8,C2/m,13,2,5,1,8,FeTi4Se8,90.0,-6.155033
mp-1208265,Ti2CrSe4,C2/m,7,2,3,1,4,CrTi2Se4,90.0,-5.649343
mp-1208377,Ta4CrSe8,P6_3/mmc,26,2,5,1,8,CrTa4Se8,119.99999200306804,12.674745
mp-1208475,Ta2Ni3Te5,Pnma,40,2,5,1,5,Ni3Ta2Te5,90.0,17.80159
mp-1209096,Sc6CuTe2,Pnma,36,2,7,1,2,CuSc6Te2,90.0,20.100274
mp-1209978,Nb4VSe8,P6_3/mmc,26,2,5,1,8,Nb4VSe8,120.00000393781933,12.884958
mp-1212830,Dy7(TePd)2,Imm2,11,2,8,1,1,Dy7PdTe,90.0,15.798509
mp-1212900,Cu2Pd3Se4,P2_1/c,18,2,5,1,4,Cu2Pd3Se4,90.0,-5.688487
mp-1213635,Cu2(ReSe2)3,C2/c,44,2,3,1,2,Cu2ReSe2,90.0,-12.157984
mp-1215227,ZrTaTe4,P-3m1,6,2,2,1,4,TaZrTe4,119.99998689397597,14.508207
mp-1215397,Zr4FeSe8,C2/m,13,2,5,1,8,FeZr4Se8,90.0,-6.517231
mp-1215406,ZnCdTe2,R3m,4,2,2,1,2,CdZnTe2,120.00001104891473,22.199713
mp-1215427,ZnCdSe2,Fm-3m,4,2,2,1,2,CdZnSe2,90.0,6.942957
mp-1215466,ZnHgSe2,R3m,4,2,2,1,2,HgZnSe2,120.00001019157509,20.893899
mp-1215476,ZnHgTe2,R3m,4,2,2,1,2,HgZnTe2,120.00000839458089,22.240915
mp-1215486,ZnCdSe2,R3m,4,2,2,1,2,CdZnSe2,119.99999330315937,20.750507
mp-1215513,Zn2TeSe,R3m,4,1,2,2,2,Zn2SeTe,120.0000124629273,20.643915
mp-1215583,Zn4CoSe5,Cm,10,2,5,1,5,CoZn4Se5,90.0,-8.598135
mp-1215652,Zn4CdSe5,R3m,10,2,5,1,5,CdZn4Se5,119.99999288812242,50.865794
mp-1215660,ZnHg4Te5,R3m,10,2,5,1,5,Hg4ZnTe5,120.00000403549046,56.94381
mp-1215832,YUTe6,Amm2,8,2,2,1,6,UYTe6,90.0,4.37496
mp-1215907,YAgTe2,P3m1,4,2,2,1,2,AgYTe2,119.99999267508564,7.314602
mp-1216202,Y(CuSe)3,R-3,14,2,2,1,1,CuYSe,120.00000083040827,19.899733
mp-1216225,Y(CuTe)3,R-3,14,2,2,1,1,CuYTe,119.99999662792857,20.897173
mp-1216577,V2CrTe4,Cm,7,2,3,1,4,CrV2Te4,90.0,-6.147493
mp-1216600,V(CrTe2)2,Cm,7,2,2,1,2,CrVTe2,90.0,-6.140105
mp-1216743,V2FeTe4,Cm,7,2,3,1,4,FeV2Te4,90.0,-5.955639
mp-1216826,V(FeSe2)2,Cm,7,2,2,1,2,FeVSe2,90.0,-5.484485
mp-1216975,TiCr3Te4,C2/m,8,2,4,1,4,Cr3TiTe4,90.0,-6.215766
mp-1216980,U4CuTe12,Cm,17,2,5,1,12,CuU4Te12,90.0,-10.393439
mp-1217132,Ti2VTe4,Cm,7,2,3,1,4,Ti2VTe4,90.0,-6.137771
mp-1217137,Ti2CrTe4,Cm,7,2,3,1,4,CrTi2Te4,90.0,-6.188842
mp-1217146,Ti2VSe4,Cm,7,2,3,1,4,Ti2VSe4,90.0,-5.693089
mp-1217179,Ti4CrTe8,C2/m,13,2,5,1,8,CrTi4Te8,90.0,-6.612854
mp-1217213,Ti5CoSe10,P-1,16,2,6,1,10,CoTi5Se10,90.01086801882708,7.650709
mp-1217257,TePtSe,P3m1,3,1,1,2,2,PtSeTe,120.00001023418308,5.295423
mp-1217262,ThUSe2,P4/mmm,4,2,2,1,2,ThUSe2,90.0,5.865718
mp-1217263,TePdSe,P3m1,3,1,1,2,2,PdSeTe,120.00000199222904,5.10918
mp-1217314,TeMo2Se3,P3m1,6,1,2,2,4,Mo2Se3Te,119.99999887632424,14.590427
mp-1217371,Te3Mo2Se,P3m1,6,1,2,2,4,Mo2SeTe3,119.99998964281266,15.095058
mp-1217383,Te8Pd5Se2,Cm,15,1,5,2,10,Pd5Se2Te8,90.47864685513574,17.620172
mp-1217418,Te4Mo2Ru,P1,14,2,3,1,4,Mo2RuTe4,93.86092350502044,7.154276
mp-1217433,TbUTe4,Imm2,6,2,2,1,4,TbUTe4,90.0,14.187156
mp-1217440,Te16(Mo3Ru)3,P1,28,2,4,1,16,Mo3RuTe16,95.26270760760978,10.346975
mp-1217457,Th4UTe5,P4/mmm,10,2,5,1,5,Th4UTe5,90.0,19.230015
mp-1217458,TbUTe6,Amm2,8,2,2,1,6,TbUTe6,90.0,4.388837
mp-1217533,TbUTe3,Pnma,20,2,2,1,3,TbUTe3,90.0,12.111346
mp-1217648,U2(Mo3Se4)5,P-1,74,2,5,1,4,Mo3U2Se4,90.96099340700495,13.809291
mp-1217821,TaWSe4,P-6m2,6,2,2,1,4,TaWSe4,119.99999176671291,13.575497
mp-1217851,Tb(CuTe)3,R-3,14,2,2,1,1,CuTbTe,120.00000010608876,20.963332
mp-1217922,TaReSe4,P-6m2,6,2,2,1,4,ReTaSe4,120.00001574091881,12.922012
mp-1217942,TaNbTe4,P1,18,2,2,1,4,NbTaTe4,103.47998686010214,8.893762
mp-1218097,Ta4MoSe10,R3m,15,2,5,1,10,MoTa4Se10,120.000010606619,101.764288
mp-1218111,Ta4Fe5Te12,Pm,21,2,9,1,12,Fe5Ta4Te12,90.0,-19.082367
mp-1218913,SmYSe2,R-3m,4,2,2,1,2,SmYSe2,119.99999494123755,20.530324
mp-1218995,SmGdSe2,R-3m,4,2,2,1,2,GdSmSe2,120.00001016391388,20.526702
mp-1219049,SmEuSe2,R-3m,4,2,2,1,2,EuSmSe2,120.00000476978353,20.875691
mp-1219132,Re2MoSe4,P1,14,2,3,1,4,MoRe2Se4,93.56037054902798,6.708926
mp-1219145,Re(Te2Mo)2,P1,14,2,2,1,2,MoReTe2,92.81209317150775,7.150136
mp-1219189,Sm(CuTe)3,R-3,14,2,2,1,1,CuSmTe,119.99999758475575,21.328355
mp-1219312,ScCuSe2,P3m1,4,2,2,1,2,CuScSe2,120.00001441221731,6.292052
mp-1219332,Sm3CuSe6,Pca2_1,40,2,4,1,6,CuSm3Se6,90.0,17.285523
mp-1219401,Sm2UTe5,Pmm2,16,2,3,1,5,Sm2UTe5,90.0,26.735525
mp-1219426,Sc8CuTe3,Pm,36,2,9,1,3,CuSc8Te3,90.0,-20.204603
mp-1219580,Re9Mo3Se16,P1,28,2,12,1,16,Mo3Re9Se16,93.53777880714289,13.40397
mp-1219811,PrUTe6,Amm2,8,2,2,1,6,PrUTe6,90.0,4.403412
mp-1220033,Pr2UTe5,C2,16,2,3,1,5,Pr2UTe5,90.0,-8.902718
mp-1220035,NiTeSe,P3m1,3,1,1,2,2,NiSeTe,120.00001593250644,5.054423
mp-1220110,Ni(Mo3Se4)2,P1,15,2,4,1,4,Mo3NiSe4,93.15343135421384,6.825536
mp-1220117,NdUTe6,Amm2,8,2,2,1,6,NdUTe6,90.0,4.391633
mp-1220151,Ni(Te4Mo3)2,P1,15,2,4,1,4,Mo3NiTe4,90.04769132124945,7.202995
mp-1220367,NbWSe4,P-6m2,6,2,2,1,4,NbWSe4,119.9999972206682,13.460515
mp-1220412,NbCuSe2,P6_3mc,8,2,2,1,2,CuNbSe2,120.00001273034242,13.922326
mp-1220427,Nb6AgSe8,P-3,15,2,7,1,8,AgNb6Se8,120.00000235160874,3.484524
mp-1220443,NbMoSe4,P-6m2,12,2,2,1,4,MoNbSe4,120.00001206423302,13.364423
mp-1220470,Nb6ZnTe8,P-3,15,2,7,1,8,Nb6ZnTe8,120.00000361201806,3.664088
mp-1220503,Nb3WSe8,Cm,12,2,4,1,8,Nb3WSe8,90.0,-11.828121
mp-1220509,Nd2CuTe4,P2_1,14,2,3,1,4,CuNd2Te4,90.0,-7.684419
mp-1220592,Nb6Pd2Se15,P-1,46,2,8,1,15,Nb6Pd2Se15,75.76111778356207,15.359407
mp-1220640,Nd2UTe5,Pmm2,16,2,3,1,5,Nd2UTe5,90.0,26.891252
mp-1220663,Nb3MoSe8,Pm,12,2,4,1,8,MoNb3Se8,90.0,-13.45664
mp-1220676,Nb3IrSe8,C2/m,12,2,4,1,8,IrNb3Se8,90.0,-6.832897
mp-1220695,Nb2CuTe4,Pm,7,2,3,1,4,CuNb2Te4,90.0,-7.011772
mp-1220701,Nb3(IrSe5)2,P-1,15,2,4,1,5,IrNb3Se5,90.18652687166097,8.038062
mp-1220711,Nb3FeSe10,Pm,14,2,4,1,10,FeNb3Se10,90.0,-9.388383
mp-1220761,Nb12ZnSe16,P-1,29,2,13,1,16,Nb12ZnSe16,90.04393950473587,8.820989
mp-1220914,Nb2Ni5Te6,P-1,26,2,7,1,6,Nb2Ni5Te6,116.60027285403957,-9.654778
mp-1221364,MnNiTe2,P-3m1,8,2,2,1,2,MnNiTe2,119.99999004576274,5.765945
mp-1221402,MoWSe4,P-6m2,6,2,2,1,4,MoWSe4,119.9999934167152,14.32333
mp-1221497,MnZnTe2,P-4m2,4,2,2,1,2,MnZnTe2,90.0,6.262016
mp-1221499,Mo2RuSe4,P-1,14,2,3,1,4,Mo2RuSe4,93.69491835815803,6.819394
mp-1221500,MnZnSe2,R3m,4,2,2,1,2,MnZnSe2,120.00000736260368,20.156518
mp-1221503,MnZnSe2,P3m1,4,2,2,1,2,MnZnSe2,120.00000841052315,6.737047
mp-1221505,MnZnTe2,R3m,4,2,2,1,2,MnZnTe2,119.99999844061405,21.669041
mp-1221515,MnZn4Se5,Cm,10,2,5,1,5,MnZn4Se5,90.0,-8.707105
mp-1221521,MnZnTe4,P2_1/c,12,2,2,1,4,MnZnTe4,90.0,-6.906642
mp-1221523,MnZnSe4,P2_1/c,12,2,2,1,4,MnZnSe4,90.0,-6.391194
mp-1221591,MnHg2Te3,P3m1,6,2,3,1,3,Hg2MnTe3,120.00000416129201,11.271573
mp-1221638,MnCr3Te4,P2/m,8,2,4,1,4,Cr3MnTe4,90.0,-7.178466
mp-1221650,MnCdTe2,R3m,4,2,2,1,2,CdMnTe2,120.00000048835803,22.316936
mp-1221664,MnCd2Te3,P3m1,6,2,3,1,3,Cd2MnTe3,120.00000296866037,11.249267
mp-1221667,MnCd3Te4,Pmm2,8,2,4,1,4,Cd3MnTe4,90.0,9.292051
mp-1221676,MnCdTe2,P4/mmm,4,2,2,1,2,CdMnTe2,90.0,6.01427
mp-1221682,MnCoSe2,R-3m,4,2,2,1,2,CoMnSe2,119.99999440352666,17.295417
mp-1221692,MnCuSe4,P2_1/c,12,2,2,1,4,CuMnSe4,90.0,-6.257152
mp-1221743,Mn3CdTe4,R3m,8,2,4,1,4,CdMn3Te4,119.99999883002165,44.39585
mp-1221754,MnCoSe2,P-3m1,8,2,2,1,2,CoMnSe2,119.9999944335903,5.306118
mp-1221758,Mn3Te2Se,Immm,6,1,3,2,3,Mn3SeTe2,90.0,12.026461
mp-1221774,MnCrTe2,P-3m1,8,2,2,1,2,CrMnTe2,120.00001454294122,5.900384
mp-1221782,Mn4VSe5,R-3m,10,2,5,1,5,Mn4VSe5,120.00000467033145,46.827584
mp-1221790,Mn2TeSe,R-3m,4,1,2,2,2,Mn2SeTe,119.9999909640589,19.436874
mp-1221798,Mn3CdTe4,P4/mmm,8,2,4,1,4,CdMn3Te4,90.0,11.927832
mp-1221834,MnCr3Te4,C2/m,8,2,4,1,4,Cr3MnTe4,90.0,-6.179136
mp-1221890,Mn2CdTe3,P-3m1,6,2,3,1,3,CdMn2Te3,120.00000499781639,10.46425
mp-1221907,Mn3CrTe4,P-3m1,8,2,4,1,4,CrMn3Te4,119.99998808688208,12.061151
mp-1222020,Mn(CuSe)2,F-43m,20,2,2,1,1,CuMnSe,90.0,11.424045
mp-1222078,Mn(CuTe)2,F-43m,20,2,2,1,1,CuMnTe,90.0,12.09245
mp-1222176,Mn4NiSe5,Immm,10,2,5,1,5,Mn4NiSe5,90.0,20.487215
mp-1222839,LaUTe6,Amm2,8,2,2,1,6,LaUTe6,90.0,4.424176
mp-1223195,La2UTe5,C2,16,2,3,1,5,La2UTe5,90.0,-8.977151
mp-1223340,La2CuTe4,P2_1,14,2,3,1,4,CuLa2Te4,90.0,-7.747122
mp-1223922,Hg2TeSe,R-3m,4,1,2,2,2,Hg2SeTe,120.00000507491637,20.7182
mp-1223932,Hg2TeSe,R3m,4,1,2,2,2,Hg2SeTe,120.00001279091384,22.371998
mp-1224218,HfTiSe4,P2/m,6,2,2,1,4,HfTiSe4,90.0,-6.574357
mp-1224271,HfTeSe,P3m1,3,1,1,2,2,HfSeTe,119.9999946483667,6.735786
mp-1224556,Hf3TiTe20,Amm2,24,2,4,1,20,Hf3TiTe20,90.0,27.463541
mp-1224581,GdCu5Se4,C2/m,10,2,6,1,4,Cu5GdSe4,90.0,-6.185515
mp-1224716,Fe2CoSe4,Cm,7,2,3,1,4,CoFe2Se4,90.0,-5.398485
mp-1224764,GdCu5Te4,C2/m,10,2,6,1,4,Cu5GdTe4,90.0,-6.620794
mp-1224910,FeNiTe4,P2_1/c,12,2,2,1,4,FeNiTe4,90.0,-6.335462
mp-1224955,FeCoTe2,P-3m1,4,2,2,1,2,CoFeTe2,120.00000061550811,5.354908
mp-1224961,FeCuTe2,P-4m2,4,2,2,1,2,CuFeTe2,90.0,6.305539
mp-1224966,FeCoSe2,P-3m1,4,2,2,1,2,CoFeSe2,120.0000185164124,5.237414
mp-1224990,Fe4Te3Se,Pmm2,8,1,4,2,4,Fe4SeTe3,90.0,7.288261
mp-1224997,FeAgTe2,P-3m1,4,2,2,1,2,AgFeTe2,119.99999565573906,5.909637
mp-1225000,Fe4Te3Se,P4mm,8,1,4,2,4,Fe4SeTe3,90.0,13.044459
mp-1225110,DyUTe6,Amm2,8,2,2,1,6,DyUTe6,90.0,4.382418
mp-1225136,Fe2TeSe,P4mm,4,1,2,2,2,Fe2SeTe,90.0,5.937717
mp-1225243,Fe4NiSe10,P2/m,30,2,5,1,10,Fe4NiSe10,90.0,-29.027627
mp-1225290,Fe(Mo3Se4)2,P1,15,2,4,1,4,FeMo3Se4,93.87402556600341,6.856858
mp-1225301,DyAgTe2,P3m1,4,2,2,1,2,AgDyTe2,119.99999651895065,7.341981
mp-1225340,Eu2CuTe4,P-4m2,7,2,3,1,4,CuEu2Te4,90.0,10.102384
mp-1225351,Dy4MnSe7,Cm,12,2,5,1,7,Dy4MnSe7,90.0,-11.634666
mp-1225384,Dy4CrSe7,Cm,12,2,5,1,7,CrDy4Se7,90.0,-11.511149
mp-1225395,Dy(CuTe)3,R-3,14,2,2,1,1,CuDyTe,119.99999198714947,21.008863
mp-1225573,DyUTe4,Imm2,6,2,2,1,4,DyUTe4,90.0,14.120629
mp-1225646,Dy3CuSe6,Pca2_1,40,2,4,1,6,CuDy3Se6,90.0,17.081187
mp-1225652,CuAgTe,F-43m,3,2,2,1,1,AgCuTe,90.0,6.486389
mp-1225744,CuTeSe,P2_13,12,1,1,2,2,CuSeTe,90.0,6.400343
mp-1226017,CoNiTe2,P-3m1,4,2,2,1,2,CoNiTe2,120.00000617888536,5.284555
mp-1226039,CoNiTe4,P2_1/c,12,2,2,1,4,CoNiTe4,90.0,-6.357829
mp-1226048,CoNiTe4,P2/m,6,2,2,1,4,CoNiTe4,90.0,-6.662636
mp-1226054,CoNiTe4,C2/m,6,2,2,1,4,CoNiTe4,73.48461190095928,5.662245
mp-1226163,La2CeTe4,I-42d,14,2,3,1,4,CeLa2Te4,90.0,9.61667
mp-1226252,Cr4Te3Se,P-6m2,8,1,4,2,4,Cr4SeTe3,120.00000696780947,12.58397
mp-1226320,Cr2TeSe,P-6m2,8,1,2,2,2,Cr2SeTe,90.0,6.337775
mp-1226512,Co(NiSe2)2,Cm,7,2,2,1,2,CoNiSe2,90.0,-5.3331
mp-1226586,Co2Ni2Te5,P-1,18,2,4,1,5,Co2Ni2Te5,61.413109367278906,9.149758
mp-1226688,Gd3Cu2Te7,Ama2,24,2,5,1,7,Cu2Gd3Te7,90.0,6.079392
mp-1226731,CdHg4Se5,I-4m2,10,2,5,1,5,CdHg4Se5,90.0,31.298097
mp-1226732,Ce2TeSe,P4/mmm,4,1,2,2,2,Ce2SeTe,90.0,6.133619
mp-1226733,CdHgSe2,R3m,4,2,2,1,2,CdHgSe2,119.99999875122728,21.614391
mp-1226741,CdHgTe2,R3m,4,2,2,1,2,CdHgTe2,119.99999225570083,23.02231
mp-1226756,CdHg4Se5,R-3m,10,2,5,1,5,CdHg4Se5,120.00000542185754,50.280444
mp-1226774,CeUTe6,Amm2,8,2,2,1,6,CeUTe6,90.0,4.401424
mp-1226794,CdHg4Te5,Immm,10,2,5,1,5,CdHg4Te5,90.0,21.98367
mp-1226897,Cd4HgSe5,P3m1,20,2,5,1,5,Cd4HgSe5,120.00000136862916,35.936312
mp-1226939,Cd2TeSe,P3m1,4,1,2,2,2,Cd2SeTe,120.0000089822849,7.410215
mp-1232380,MnCdTe2,I-42d,8,2,2,1,2,CdMnTe2,90.0,11.942674
mp-1237584,Cr(FeTe2)2,P2/m,7,2,2,1,2,CrFeTe2,90.0,-6.656232
mp-1237898,Nb3AgTe4,P6_3/m,16,2,4,1,4,AgNb3Te4,90.0,-8.509627
mp-1246098,Y2Pt2Se7,Fd-3m,22,2,4,1,7,Pt2Y2Se7,90.0,12.863196
mp-12463,Ni(TePd)2,Ibam,10,2,2,1,1,NiPdTe,90.0,11.487282
mp-12464,Co(PdSe)2,Ibam,10,2,2,1,1,CoPdSe,90.0,10.644846
mp-12465,Co(TePd)2,Ibam,10,2,2,1,1,CoPdTe,90.0,11.209269
mp-12466,Fe(PdSe)2,Ibam,10,2,2,1,1,FePdSe,90.0,10.709413
mp-1246872,Cd(HgTe2)2,P-4m2,7,2,2,1,2,CdHgTe2,90.0,11.770303
mp-12743,CrTe4Au,P2/m,6,2,2,1,4,AuCrTe4,90.0,-7.57184
mp-12903,YAgTe2,P-42_1m,8,2,2,1,2,AgYTe2,90.0,4.745537
mp-12908,ScAgSe2,P-3m1,4,2,2,1,2,AgScSe2,120.0000022543601,6.637664
mp-14474,Ta2PtSe7,C2/m,20,2,3,1,7,PtTa2Se7,90.0,-17.919228
mp-14815,TaTe5Pt,Cmcm,14,2,2,1,5,PtTaTe5,90.0,15.671691
mp-17287,TaTe4Ir,Pmn2_1,24,2,2,1,4,IrTaTe4,90.0,14.046984
mp-17336,NpCuSe2,P2_1/c,16,2,2,1,2,CuNpSe2,90.0,-7.038568
mp-17865,Nb4CrSe8,P6_3/mmc,26,2,5,1,8,CrNb4Se8,119.99999865771666,13.835747
mp-18706,Y5(FeTe)2,Cmcm,18,2,6,1,1,FeY5Te,90.0,15.250443
mp-19810,TaNiTe2,Pmna,16,2,2,1,2,NiTaTe2,90.0,7.993385
mp-19912,UMnSe3,Cmcm,10,2,2,1,3,MnUSe3,90.0,9.162616
mp-20118,Cr2AgTe4,Fd-3m,14,2,3,1,4,AgCr2Te4,90.0,11.519982
mp-20170,CeCrSe3,Pnma,20,2,2,1,3,CeCrSe3,90.0,13.647418
mp-20506,NbNiTe2,Pmna,16,2,2,1,2,NbNiTe2,90.0,8.024317
mp-21621,Y6Te2Rh,Pnma,36,2,7,1,2,RhY6Te2,90.0,21.881249
mp-22625,Cr2CuTe4,Fd-3m,14,2,3,1,4,Cr2CuTe4,90.0,11.196436
mp-22792,MnTePd,F-43m,3,2,2,1,1,MnPdTe,90.0,6.341677
mp-28616,NbTe5Pd,Pnma,28,2,2,1,5,NbPdTe5,90.0,15.778797
mp-28667,Ta(NiTe)2,Pnma,20,2,2,1,1,NiTaTe,90.0,18.023807
mp-28846,TaCoTe2,P2_1/c,16,2,2,1,2,CoTaTe2,90.0,-7.76829
mp-28934,Ta2Te5Pd3,Pnma,40,2,5,1,5,Pd3Ta2Te5,90.0,18.842242
mp-28964,Ta4FeTe4,Pbam,36,2,5,1,4,FeTa4Te4,90.0,19.263697
mp-29607,Ag(TeMo)6,C2/m,13,2,2,1,1,AgMoTe,90.0,-8.280108
mp-29659,FeAgTe2,P-3m1,12,2,2,1,2,AgFeTe2,120.00000356284711,5.201077
mp-29769,Sc5(NiTe)2,Pnma,36,2,6,1,1,NiSc5Te,90.0,17.914351
mp-2977,CuAgTe2,Pmm2,4,2,2,1,2,AgCuTe2,90.0,7.61207
mp-30019,ZrCu2Te3,C2/m,12,2,3,1,3,Cu2ZrTe3,90.0,-7.291429
mp-30125,PrTe2Se,Cmcm,8,1,1,2,3,PrSeTe2,90.0,4.324113
mp-30151,CuAuSe4,P2_1/m,12,2,2,1,4,AuCuSe4,90.0,-8.197608
mp-30203,Sc6AgTe2,Pnma,36,2,7,1,2,AgSc6Te2,90.0,20.486728
mp-31072,Sc6Te2Rh,P-62m,9,2,7,1,2,RhSc6Te2,119.99999515920342,3.79384
mp-31495,AgTe2Au,Pmma,8,2,2,1,2,AgAuTe2,90.0,8.967253
mp-31510,NbCuTe2,P2_1/m,8,2,2,1,2,CuNbTe2,90.0,-6.978793
mp-3172,Ag3AuSe2,I4_132,24,2,4,1,2,Ag3AuSe2,90.0,10.139247
mp-3291,AgTe4Au,P2/c,12,2,2,1,4,AgAuTe4,90.0,-8.525465
mp-33312,Nd2UTe4,I-42d,14,2,3,1,4,Nd2UTe4,90.0,9.445217
mp-33533,La2UTe4,I-42d,14,2,3,1,4,La2UTe4,90.0,9.537546
mp-35031,Pr5CuSe8,I-4,14,2,6,1,8,CuPr5Se8,90.0,9.145221
mp-35264,Pr5AgSe8,I-4,14,2,6,1,8,AgPr5Se8,90.0,9.094177
mp-35630,Pr2CdSe4,I-42d,14,2,3,1,4,CdPr2Se4,90.0,9.327891
mp-35651,La2USe4,I-42d,14,2,3,1,4,La2USe4,90.0,8.914676
mp-36252,Nd5CuSe8,I-4,14,2,6,1,8,CuNd5Se8,90.0,9.074519
mp-36305,Pr2UTe4,I-42d,14,2,3,1,4,Pr2UTe4,90.0,9.487912
mp-36407,Nd2EuSe4,I-42d,14,2,3,1,4,EuNd2Se4,90.0,8.999742
mp-3650,HfCu2Te3,C2/m,12,2,3,1,3,Cu2HfTe3,90.0,-7.245438
mp-36515,Pr2USe4,I-42d,14,2,3,1,4,Pr2USe4,90.0,8.870786
mp-36733,La2CdSe4,I-42d,14,2,3,1,4,CdLa2Se4,90.0,9.403903
mp-36821,Nd2CdSe4,I-42d,14,2,3,1,4,CdNd2Se4,90.0,9.270136
mp-37167,U12Rh4Se31,I4/mmm,47,2,16,1,31,Rh4U12Se31,90.0,13.71451
mp-3739,NdCuSe2,P2_1/c,16,2,2,1,2,CuNdSe2,90.0,-7.173043
mp-38125,Sm2CdSe4,I-42d,14,2,3,1,4,CdSm2Se4,90.0,9.167536
mp-38162,Sm5CuSe8,I-4,14,2,6,1,8,CuSm5Se8,90.0,8.981725
mp-3880,Cr2CuSe4,Fd-3m,14,2,3,1,4,Cr2CuSe4,90.0,10.406146
mp-38805,Sm5AgSe8,I-4,14,2,6,1,8,AgSm5Se8,90.0,8.937768
mp-4024,DyAgTe2,P-42_1m,8,2,2,1,2,AgDyTe2,90.0,4.737491
mp-4034,LaTe2Se,Cmcm,8,1,1,2,3,LaSeTe2,90.0,4.346316
mp-4043,NbCu3Se4,P-43m,8,2,4,1,4,Cu3NbSe4,90.0,5.710449
mp-4081,TaCu3Se4,P-43m,8,2,4,1,4,Cu3TaSe4,90.0,5.712109
mp-4425,Ta2Pt3Se8,Pbam,26,2,5,1,8,Pt3Ta2Se8,90.0,15.444093
mp-4437,NdTe2Se,Cmcm,8,1,1,2,3,NdSeTe2,90.0,4.311383
mp-4697,Zn(CrSe2)2,Fd-3m,14,2,2,1,2,CrZnSe2,90.0,10.61078
mp-4852,Ni(RhSe2)2,C2/m,7,2,2,1,2,NiRhSe2,90.0,-5.563826
mp-504898,Nb2Pd3Se8,Pbam,26,2,5,1,8,Nb2Pd3Se8,90.0,15.439152
mp-505132,Ta3Te14Pd3,P2_1/m,40,2,6,1,14,Pd3Ta3Te14,90.0,-20.424306
mp-505164,NbTe4Ir,Pmn2_1,24,2,2,1,4,IrNbTe4,90.0,13.61997
mp-505638,Tb3CrSe6,Pnnm,40,2,4,1,6,CrTb3Se6,90.0,16.799289
mp-510426,Ta4Te16Pd3,C2/m,23,2,7,1,16,Pd3Ta4Te16,90.0,-15.820492
mp-541070,Ta2NiSe5,Cmcm,16,2,3,1,5,NiTa2Se5,90.0,-15.786629
mp-541509,Ta2Ni3Se8,Pbam,26,2,5,1,8,Ni3Ta2Se8,90.0,14.954529
mp-541587,U3Cu2Se7,P6_3,24,2,5,1,7,Cu2U3Se7,119.99999624663161,5.970387
mp-541754,TiCu2Te3,C2/m,12,2,3,1,3,Cu2TiTe3,90.0,-7.115271
mp-5603,NbCoTe2,Cmce,16,2,2,1,2,CoNbTe2,90.0,6.375256
mp-567598,Dy7(TeIr)2,Imm2,11,2,8,1,1,Dy7IrTe,90.0,15.830883
mp-568224,Sm3CuSe6,P2_1/m,40,2,4,1,6,CuSm3Se6,90.0,-7.954208
mp-568349,Cr(FeSe2)2,C2/m,7,2,2,1,2,CrFeSe2,90.0,-5.519968
mp-568587,CrCuSe2,R3m,4,2,2,1,2,CrCuSe2,120.0000010862321,19.07308
mp-569511,NiTePd,Pnma,12,2,2,1,1,NiPdTe,90.0,8.426073
mp-569983,Ni2PdSe2,I4/mmm,20,2,3,1,2,Ni2PdSe2,90.0,5.649961
mp-570062,ZrTiSe4,P2/m,6,2,2,1,4,TiZrSe4,90.0,-6.66072
mp-570959,Dy2CdSe4,Fd-3m,14,2,3,1,4,CdDy2Se4,90.0,11.817331
mp-5710,Ag3Te2Au,I4_132,24,2,4,1,2,Ag3AuTe2,90.0,10.548418
mp-571054,Cu2Mo3Se4,P-1,18,2,5,1,4,Cu2Mo3Se4,84.61087152867046,7.273147
mp-571471,NbCoTe2,P2_1/c,16,2,2,1,2,CoNbTe2,90.0,-7.563194
mp-582282,GdAgSe2,I4_1md,8,2,2,1,2,AgGdSe2,90.0,13.234164
mp-607044,Eu(ScSe2)2,Pnma,28,2,2,1,2,EuScSe2,90.0,13.68668
mp-616481,NbFeTe2,Pmna,16,2,2,1,2,FeNbTe2,90.0,8.124221
mp-616615,Hf8MnTe6,Pmmn,30,2,9,1,6,Hf8MnTe6,90.0,26.093957
mp-622980,MnTePd,F-43m,3,2,2,1,1,MnPdTe,90.0,6.358427
mp-623814,Hf8FeTe6,Pmmn,30,2,9,1,6,FeHf8Te6,90.0,26.076736
mp-631294,HfMoSe,F-43m,3,2,2,1,1,HfMoSe,90.0,6.356113
mp-631381,TeRuSe,F-43m,3,1,1,2,2,RuSeTe,90.0,6.405509
mp-642238,Y6AgTe2,Pnma,36,2,7,1,2,AgY6Te2,90.0,22.149532
mp-645690,Eu(DySe2)2,Pnma,28,2,2,1,2,DyEuSe2,90.0,14.957657
mp-646337,Tb2EuSe4,Pnma,28,2,3,1,4,EuTb2Se4,90.0,15.000736
mp-653697,Ta(CoTe)2,Pnma,40,2,2,1,1,CoTaTe,90.0,18.11023
mp-654199,Ta8NiSe8,Pnma,68,2,9,1,8,NiTa8Se8,90.0,22.773693
mp-667286,Re6Te7Se8,Pbca,84,1,6,2,15,Re6Se8Te7,90.0,14.383823
mp-674017,Nb17Ir3Se40,C2/m,60,2,20,1,40,Ir3Nb17Se40,90.0,-20.347218
mp-674329,La2CdTe4,I-42d,14,2,3,1,4,CdLa2Te4,90.0,10.122039
mp-675009,Y4CuTe8,Pc,26,2,5,1,8,CuY4Te8,89.99178605273195,11.258064
mp-675066,Nb3IrSe8,Cc,24,2,4,1,8,IrNb3Se8,60.166601536629365,12.92348
mp-675326,Nb4IrSe10,P-1,15,2,5,1,10,IrNb4Se10,88.88315128011395,7.881029
mp-675462,Mo2RuSe4,P-1,28,2,3,1,4,Mo2RuSe4,94.93143619266262,9.818786
mp-675546,Cr4Cu3Te8,Imm2,15,2,7,1,8,Cr4Cu3Te8,90.0,11.323895
mp-675608,Nb3(CuTe3)2,P-1,22,2,4,1,3,CuNb3Te3,114.19874705709685,-11.008567
mp-675739,Ce5CuSe8,I-4,14,2,6,1,8,Ce5CuSe8,90.0,9.077153
mp-675747,V(FeSe2)2,P1,7,2,2,1,2,FeVSe2,106.79282960670126,5.266341
mp-675769,Ce(Mo3Se4)2,R-3,15,2,4,1,4,CeMo3Se4,120.00000139132015,11.996388
mp-675929,Ti(FeSe2)2,P-1,7,2,2,1,2,FeTiSe2,101.61038842762282,6.081514
mp-676089,Fe2CoSe4,P1,7,2,3,1,4,CoFe2Se4,89.4063893991104,4.867212
mp-676306,Dy7(CuTe4)3,P1,22,2,8,1,4,CuDy7Te4,119.07353257803041,14.105396
mp-676497,Ce2UTe4,I-42d,14,2,3,1,4,Ce2UTe4,90.0,9.466676
mp-676524,Tb7(CuTe4)3,P1,22,2,8,1,4,CuTb7Te4,119.29009798065032,14.151715
mp-677132,Gd2CdSe4,I-42d,14,2,3,1,4,CdGd2Se4,90.0,9.078539
mp-678358,Hf5ZrTe8,P1,56,2,6,1,8,Hf5ZrTe8,119.88846623759818,-15.777753
mp-685251,Nd2(Mo3Se4)5,P-1,148,2,5,1,4,Mo3Nd2Se4,91.54521997583733,47.694656