material_id,formula,space_group,nsites,count_unique_TM,count_TM,count_unique_C,count_C,consensus_formula,ab_angle(degree),caxis
mp-568220,NbTe4,P4/ncc,120,1,1,1,4,NbTe4,90.0,20.98175
mp-568251,Ni6Se5,Pca2_1,88,1,6,1,5,Ni6Se5,90.0,17.012721
mp-568593,Pd34Se11,P2_1/c,90,1,34,1,11,Pd34Se11,90.0,-21.517145
mp-568761,AgTe,Pnma,32,1,1,1,1,AgTe,90.0,20.358743
mp-568841,Np3Te4,I-43d,14,1,3,1,4,Np3Te4,90.0,9.321023
mp-568865,ZrTe,Pnma,8,1,1,1,1,ZrTe,90.0,7.450959
mp-568998,CuSe,P6_3/mmc,12,1,1,1,1,CuSe,119.99999865525615,17.038135
mp-569322,Te2Ir,Pnma,12,1,1,1,2,IrTe2,90.0,13.587474
mp-569388,Te2Ir,Pnma,24,1,1,1,2,IrTe2,90.0,22.916824
mp-569544,ZrTe,P6_3/mmc,4,1,1,1,1,ZrTe,120.0000070901302,7.936423
mp-570,NdTe,Fm-3m,2,1,1,1,1,NdTe,90.0,6.364327
mp-570122,Cr3Te4,P-3m1,7,1,3,1,4,Cr3Te4,90.0,-12.641849
mp-570451,Nb2Te3,C2/m,10,1,2,1,3,Nb2Te3,90.0,-8.895236
mp-570562,Te3Pt2,C2/m,10,1,2,1,3,Pt2Te3,90.0,-17.584677
mp-570668,LaSe2,P2_1/c,12,1,1,1,2,LaSe2,90.0,-8.638033
mp-570751,Nb3Te,Pm-3n,8,1,3,1,1,Nb3Te,90.0,5.30287
mp-571033,NiSe,P4/nmm,4,1,1,1,1,NiSe,90.0,5.430158
mp-571133,NbSe2,P-6m2,12,1,1,1,2,NbSe2,119.99999304809731,28.215334
mp-571144,Sm3Te4,I-43d,14,1,3,1,4,Sm3Te4,90.0,9.463493
mp-571195,ZnTe,P3_1,6,1,1,1,1,ZnTe,119.99999835617493,10.704962
mp-571383,PdSe,P4_2/mbc,48,1,1,1,1,PdSe,90.0,7.133222
mp-571486,CuSe,Cmcm,12,1,1,1,1,CuSe,90.0,17.434923
mp-571512,TePt,P6_3/mmc,4,1,1,1,1,PtTe,119.9999949828205,5.661771
mp-571547,Te2Au,Pc,12,1,1,1,2,AuTe2,90.0,-8.438215
mp-571571,CeTe3,Cmcm,8,1,1,1,3,CeTe3,90.0,4.419389
mp-571576,LaTe2,P4bm,24,1,1,1,2,LaTe2,90.0,-9.264585
mp-571651,TiSe,Pnma,8,1,1,1,1,TiSe,90.0,6.495951
mp-573810,U2Te5,C2/m,14,1,2,1,5,U2Te5,90.00316929077337,17.263589
mp-574283,GdTe,Fm-3m,2,1,1,1,1,GdTe,90.0,6.260498
mp-583070,Re2Te5,Pbca,84,1,2,1,5,Re2Te5,90.0,14.704622
mp-599,TiTe,P6_3/mmc,4,1,1,1,1,TiTe,119.99999280558187,7.661766
mp-600216,U2Se3,Pnma,20,1,2,1,3,U2Se3,90.0,11.069623
mp-601823,TaTe2,C2/m,9,1,1,1,2,TaTe2,103.38034121068773,8.900276
mp-602,Te2Mo,P6_3/mmc,6,1,1,1,2,MoTe2,120.00001183841354,15.346645
mp-604910,MnSe,P4/nmm,4,1,1,1,1,MnSe,90.0,6.246356
mp-604914,VSe,P4/nmm,4,1,1,1,1,VSe,90.0,6.572222
mp-604915,CrSe,P4/nmm,4,1,1,1,1,CrSe,90.0,6.320517
mp-605,ZrTe5,Cmcm,12,1,1,1,5,ZrTe5,90.0,13.839632
mp-613,Te2Pd3,Cmcm,10,1,3,1,2,Pd3Te2,90.0,8.020999
mp-618,Pd7Se2,P2_1/c,18,1,7,1,2,Pd7Se2,90.0,-9.55801
mp-619501,U2Te3,Pnma,20,1,2,1,3,U2Te3,90.0,12.058675
mp-619905,Ti9Se2,Pbam,22,1,9,1,2,Ti9Se2,90.0,15.510346
mp-623012,CuTe,Pmmn,4,1,1,1,1,CuTe,90.0,5.53306
mp-624307,Cu7Te4,P3m1,22,1,7,1,4,Cu7Te4,120.00000284581503,7.947042
mp-638586,Te3Pd13,Fd-3m,32,1,13,1,3,Pd13Te3,90.0,12.897122
mp-642301,Y7Te2,Pnma,36,1,7,1,2,Y7Te2,90.0,23.215394
mp-645273,Ce10Te19,P4_2/n,58,1,10,1,19,Ce10Te19,90.0,18.126749
mp-645449,Te3Au2,P1,60,1,2,1,3,Au2Te3,97.13597513606916,12.232786
mp-650328,NbTe4,P4/ncc,60,1,1,1,4,NbTe4,90.0,20.982016
mp-651772,UTe5,Pna2_1,24,1,1,1,5,UTe5,90.0,18.382892
mp-652044,Ce10Se19,P4_2/n,58,1,10,1,19,Ce10Se19,90.0,16.667876
mp-666,UTe2,Immm,6,1,1,1,2,UTe2,90.0,13.823583
mp-672389,MnTe,P2_1/m,8,1,1,1,1,MnTe,90.0,-6.79662
mp-680260,Ti45Se16,P1,61,1,45,1,16,Ti45Se16,90.00577842230909,17.695421
mp-680343,Ta21Te13,P6mm,136,1,21,1,13,Ta21Te13,120.000001387254,10.700234
mp-684555,USe2,P4/n,30,1,1,1,2,USe2,90.02792637902368,10.671705
mp-684605,Cu17Se10,Cm,27,1,17,1,10,Cu17Se10,90.0,-32.967264
mp-684653,Cu2Se,Pmn2_1,6,1,2,1,1,Cu2Se,90.0,6.013966
mp-684787,U2Te3,I-42d,40,1,2,1,3,U2Te3,90.0,27.714564
mp-684798,Ag2Te,Pc,12,1,2,1,1,Ag2Te,90.0,-6.845136
mp-684822,Co19Te34,P-1,53,1,19,1,34,Co19Te34,99.97765197134846,-14.796974
mp-684844,Pu2Te3,I-42d,40,1,2,1,3,Pu2Te3,90.0,27.966689
mp-684869,Te16Rh11,P-1,27,1,11,1,16,Rh11Te16,112.05667746918404,10.099949
mp-684876,Te40Rh31,P1,71,1,31,1,40,Rh31Te40,111.379236919438,-11.687825
mp-684911,Sm2Te3,I-42d,40,1,2,1,3,Sm2Te3,90.0,28.41074
mp-684965,ZrSe,P1,32,1,1,1,1,ZrSe,90.00978873656229,27.83264
mp-684997,Ni23Te42,P-1,65,1,23,1,42,Ni23Te42,93.90682366869251,19.850131
mp-685003,Tb2Se3,I-42d,40,1,2,1,3,Tb2Se3,90.0,26.161252
mp-685007,Tb5Te9,P2,56,1,5,1,9,Tb5Te9,90.0,-11.951191
mp-685031,Tb8Se15,P1,138,1,8,1,15,Tb8Se15,89.56591045958814,25.01066
mp-685047,V23Se40,C2/m,63,1,23,1,40,V23Se40,90.0,-29.829671
mp-685048,Ag2Te,P1,21,1,2,1,1,Ag2Te,118.41828619861587,27.11211
mp-685055,CrTe2,P-3m1,24,1,1,1,2,CrTe2,120.00000296629071,12.335424
mp-685069,Sc2Te3,P-1,20,1,2,1,3,Sc2Te3,119.19563602492396,13.697172
mp-685077,Fe2Te3,R-3c,10,1,2,1,3,Fe2Te3,120.0000056547642,15.015322
mp-685099,IrSe3,P1,28,1,1,1,3,IrSe3,89.72030730686542,17.965554
mp-685124,Ni19Se20,P-1,39,1,19,1,20,Ni19Se20,113.90425892012983,10.043215
mp-685146,CdTe,Cmc2_1,4,1,1,1,1,CdTe,90.0,7.636903
mp-685189,Cu29Se19,R3m,48,1,29,1,19,Cu29Se19,119.99999599815358,187.904549
mp-696673,Cr7Se8,C2/m,15,1,7,1,8,Cr7Se8,90.0,-6.47776
mp-7007,NbSe2,Fmm2,3,1,1,1,2,NbSe2,90.0,24.677955
mp-7131,PrTe,Pm-3m,2,1,1,1,1,PrTe,90.0,3.907568
mp-722,Pr3Se4,I-43d,14,1,3,1,4,Pr3Se4,90.0,9.01226
mp-7273,Te8Rh3,R-3,11,1,3,1,8,Rh3Te8,119.9999990778274,11.115858
mp-740,NdTe3,Cmcm,8,1,1,1,3,NdTe3,90.0,4.396071
mp-7459,Te2Mo,P2_1/m,12,1,1,1,2,MoTe2,90.0,-15.53442
mp-7498,Ti5Te4,I4/m,9,1,5,1,4,Ti5Te4,90.0,3.744764
mp-754,Te2Rh,Pa-3,12,1,1,1,2,RhTe2,90.0,6.535375
mp-7564,Nb3Te4,P6_3/m,14,1,3,1,4,Nb3Te4,120.00000237436424,3.661338
mp-7581,MoSe2,R3m,3,1,1,1,2,MoSe2,119.99998370531559,22.087988
mp-7818,Pd4Se,P-42_1c,10,1,4,1,1,Pd4Se,90.0,5.762397
mp-782,Te2Pd,P-3m1,3,1,1,1,2,PdTe2,119.99999885291287,5.170725
mp-7834,TaSe2,R3m,3,1,1,1,2,TaSe2,120.00001019007937,21.280504
mp-788,CoTe,P6_3/mmc,4,1,1,1,1,CoTe,119.99998679763502,5.303518
mp-794,CrTe,P6_3/mmc,4,1,1,1,1,CrTe,120.00001192379418,6.329066
mp-7951,ThSe2,Pnma,12,1,1,1,2,ThSe2,90.0,9.138242
mp-807,NpTe,Fm-3m,2,1,1,1,1,NpTe,90.0,6.220228
mp-8357,UTe3,P2_1/m,8,1,1,1,3,UTe3,90.0,-10.63289
mp-8591,USe2,P-62m,9,1,1,1,2,USe2,120.0000040720557,4.080092
mp-8601,Te4Mo3,R-3,14,1,3,1,4,Mo3Te4,119.99999780328983,11.969277
mp-8628,Te4Pt3,R-3m,7,1,3,1,4,Pt3Te4,90.0,-12.129789
mp-862863,Pa3Te,Pm-3m,4,1,3,1,1,Pa3Te,90.0,4.576172
mp-862866,PaTe3,P6_3/mmc,8,1,1,1,3,PaTe3,119.99999511416786,5.66066
mp-865430,YTe,P-6m2,2,1,1,1,1,YTe,119.99998959282964,4.060929
mp-865558,AcTe3,I4/mmm,4,1,1,1,3,AcTe3,90.0,11.670781
mp-867290,TbTe,P-6m2,2,1,1,1,1,TbTe,119.99999328063959,4.07253
mp-8732,Ta2Se,P4/nmm,6,1,2,1,1,Ta2Se,90.0,10.337985
mp-879,La3Te4,I-43d,14,1,3,1,4,La3Te4,90.0,9.686145
mp-8884,ZnTe,P6_3mc,4,1,1,1,1,ZnTe,119.99998372579267,7.179232
mp-900,RhSe,P6_3/mmc,4,1,1,1,1,RhSe,119.99998851115315,5.669942
mp-9281,ZnTe,P6_422,6,1,1,1,1,ZnTe,120.00000356011675,9.77596
mp-9399,SmTe3,Cmcm,8,1,1,1,3,SmTe3,90.0,4.372602
mp-9429,USe3,P2_1/m,8,1,1,1,3,USe3,90.0,-10.110009
mp-945077,YTe3,Cmcm,8,1,1,1,3,YTe3,90.0,4.33525
mp-948,ZnTe,Fm-3m,2,1,1,1,1,ZnTe,90.0,5.775373
mp-9521,Th7Te12,P-6,19,1,7,1,12,Th7Te12,119.99999847318082,4.355031
mp-974372,Rh3Se,P6_3/mmc,8,1,3,1,1,Rh3Se,120.00000805775544,4.448812
mp-974469,ReTe,P6_3mc,4,1,1,1,1,ReTe,120.00000675718925,8.862069
mp-975652,PrTe2,P4/nmm,6,1,1,1,2,PrTe2,90.0,9.246695
mp-976953,Ni3Te,P6_3/mmc,8,1,3,1,1,Ni3Te,119.9999985193626,4.268218
mp-979273,TePd3,I4/mmm,4,1,3,1,1,Pd3Te,90.0,7.738609
mp-982778,Zn3Se,P6_3/mmc,8,1,3,1,1,Zn3Se,119.99999697959475,4.785091
mp-982779,NbTe,P-6m2,2,1,1,1,1,NbTe,120.00000690782876,3.694211
mp-9945,CoTe2,Pnnm,6,1,1,1,2,CoTe2,90.0,6.286023
mp-9948,V5Te4,I4/m,9,1,5,1,4,V5Te4,90.0,3.976519
mvc-11438,CoSe2,Fd-3m,12,1,1,1,2,CoSe2,60.38853573359704,5.663175
mvc-11653,CrSe2,F-43m,12,1,1,1,2,CrSe2,60.06271774398021,5.853046
mp-1008876,MnCoS,F-43m,3,2,2,1,1,CoMnS,90.0,5.44
mp-1018631,Dy(CuS)2,P-3m1,5,2,2,1,1,CuDyS,119.99998719179011,6.356033
mp-1018637,Tb(CuS)2,P-3m1,5,2,2,1,1,CuTbS,119.99999116940366,6.371887
mp-1018806,MoSeS,Amm2,6,1,1,2,2,MoSSe,90.0,19.532273
mp-1019322,Te2W,P6_3/mmc,6,1,1,1,2,WTe2,119.99999457183281,15.117308
mp-1023124,Co2MoS4,I-4,7,2,3,1,4,Co2MoS4,90.0,10.310192
mp-1023931,TeWS,P3m1,6,1,1,2,2,WSTe,119.99998239289552,23.968878
mp-1023959,TeMoS,P3m1,6,1,1,2,2,MoSTe,120.00000902409599,23.86942
mp-1025224,V(CrS2)2,C2/m,7,2,2,1,2,CrVS2,90.0,-5.354299
mp-1025269,Ti2CoS4,C2/m,7,2,3,1,4,CoTi2S4,90.0,-5.176609
mp-1025305,Nb2CuS4,P-3m1,7,2,3,1,4,CuNb2S4,120.00000723418205,12.75524
mp-1025312,Mn(NbS2)2,P-3m1,7,2,2,1,2,MnNbS2,119.99999295721791,13.769009
mp-1025350,Nb2CoS4,P-3m1,7,2,3,1,4,CoNb2S4,119.99998081631573,13.342075
mp-1025368,Ti2VS4,C2/m,7,2,3,1,4,Ti2VS4,90.0,-5.363109
mp-1025577,W3(SeS2)2,P3m1,9,1,3,2,3,W3S2Se,119.99999233910724,29.705629
mp-1025584,W3(SeS2)2,P-6m2,9,1,3,2,3,W3S2Se,120.0000106157303,29.694536
mp-1025586,Te2W3S4,P3m1,9,1,3,2,6,W3S4Te2,120.00000934224514,30.569943
mp-1025588,W3(Se2S)2,P-6m2,9,1,3,2,3,W3SSe2,120.00000307341853,30.254777
mp-1025599,W3(Se2S)2,P3m1,9,1,3,2,3,W3SSe2,120.00000794103954,30.268004
mp-1025769,Te4Mo3S2,P-6m2,9,1,3,2,6,Mo3S2Te4,119.99998253048415,31.592606
mp-1025911,Mo2WS6,P-6m2,9,2,3,1,6,Mo2WS6,119.99999686384366,29.108745
mp-1025922,Mo2WS6,P3m1,9,2,3,1,6,Mo2WS6,120.00001905396618,29.1005
mp-1025925,Mo3(SeS2)2,P-6m2,9,1,3,2,3,Mo3S2Se,120.00001734405201,29.667805
mp-1025937,Te4Mo3S2,P3m1,9,1,3,2,6,Mo3S2Te4,120.0000161046943,31.711151
mp-1025988,Mo3(SeS2)2,P3m1,9,1,3,2,3,Mo3S2Se,119.99999557608079,29.636817
mp-1026020,Te2Mo3S4,P3m1,9,1,3,2,6,Mo3S4Te2,120.00000878655885,30.461398
mp-1026034,Mo(WS3)2,P3m1,9,2,2,1,3,MoWS3,120.00001375410547,29.098697
mp-1026916,MoSeS,P-3m1,12,1,1,2,2,MoSSe,120.00000572055256,36.821553
mp-1026980,Mo2Se3S,P3m1,12,1,2,2,4,Mo2SSe3,119.99999944923567,37.308583
mp-1027269,MoWS4,P-3m1,12,2,2,1,4,MoWS4,120.00000367139917,35.843449
mp-1027335,MoWS4,P3m1,12,2,2,1,4,MoWS4,120.00001304045749,35.838786
mp-1027358,TeMoS,P-3m1,12,1,1,2,2,MoSTe,119.9999907205777,39.742531
mp-1027412,TeMoS,P3m1,12,1,1,2,2,MoSTe,120.00000099932063,38.226936
mp-1027483,Mo2Se3S,P3m1,12,1,2,2,4,Mo2SSe3,119.9999857496299,37.295629
mp-1027569,Mo3WS8,P3m1,12,2,4,1,8,Mo3WS8,120.00000955971649,35.845802
mp-1027580,MoSeS,P3m1,12,1,1,2,2,MoSSe,120.00000693693387,36.841711
mp-1027645,Mo3WS8,P3m1,12,2,4,1,8,Mo3WS8,120.0000232828493,35.827071
mp-1027647,MoWS4,P3m1,12,2,2,1,4,MoWS4,119.99999787408257,35.847065
mp-1027687,MoSeS,P3m1,12,1,1,2,2,MoSSe,119.99999518530466,36.45187
mp-1027696,TeMo2S3,P3m1,12,1,2,2,4,Mo2S3Te,119.99999008506234,37.214717
mp-1027738,TeMoS,P3m1,12,1,1,2,2,MoSTe,119.99998195392175,39.730027
mp-1027890,Mo2SeS3,P3m1,12,1,2,2,4,Mo2S3Se,119.99998201340473,37.888409
mp-1028487,W2SeS3,P3m1,12,1,2,2,4,W2S3Se,120.00000745880114,36.401228
mp-1028492,TeW2S3,P3m1,12,1,2,2,4,W2S3Te,120.00000118041454,37.226062
mp-1028512,TeW2S3,P3m1,12,1,2,2,4,W2S3Te,119.99999959327648,42.007485
mp-1028586,Te2W,P-3m1,12,1,1,1,2,WTe2,119.999989638127,40.139184
mp-1028604,TeWS,P-3m1,12,1,1,2,2,WSTe,119.99999597372472,38.368303
mp-1028690,TeWS,P3m1,12,1,1,2,2,WSTe,120.00001516665002,38.390317
mp-1028755,Te3W2S,P3m1,12,1,2,2,4,W2STe3,120.00000710992666,39.226005
mp-1028761,TeWS,P-3m1,12,1,1,2,2,WSTe,120.0000096987062,39.39591
mp-1028769,W2Se3S,P3m1,12,1,2,2,4,W2SSe3,119.99999774836223,37.444283
mp-1029246,MoW3S8,P3m1,12,2,4,1,8,MoW3S8,119.99999602918822,35.845072
mp-1030461,TeMoS,P-3m1,12,1,1,2,2,MoSTe,119.999996974084,38.270308
mp-10328,LaCrS3,Pnma,20,2,2,1,3,CrLaS3,90.0,13.140695
mp-10533,YCuS2,Pnma,16,2,2,1,2,CuYS2,90.0,13.488847
mp-10652,SmTe,Pm-3m,2,1,1,1,1,SmTe,90.0,3.845178
mp-10748,TaCu3S4,P-43m,8,2,4,1,4,Cu3TaS4,90.0,5.533429
mp-10754,Fe(RhS2)2,Fd-3m,14,2,2,1,2,FeRhS2,90.0,9.913622
mp-1077935,V2CoS4,C2/m,7,2,3,1,4,CoV2S4,90.0,-5.190556
mp-1078000,Mn(CrS2)2,C2/m,7,2,2,1,2,CrMnS2,90.0,-5.152539
mp-1078077,V2CrS4,C2/m,7,2,3,1,4,CrV2S4,90.0,-5.281735
mp-1078387,FeCu3S4,I-42m,8,2,4,1,4,Cu3FeS4,90.0,10.335488
mp-1078780,ZnCd3S4,P-43m,8,2,4,1,4,Cd3ZnS4,90.0,5.813462
mp-1080726,Zn3CrS4,P-43m,8,2,4,1,4,CrZn3S4,90.0,5.46733
mp-10933,Nd2TeS2,P-3m1,5,1,2,2,3,Nd2S2Te,120.00000402206582,7.773168
mp-1094066,ScAgS2,R3m,4,2,2,1,2,AgScS2,119.99999549401299,20.711629
mp-1094100,Nb4CoS8,P6_3/mmc,26,2,5,1,8,CoNb4S8,120.00000683158224,11.803449
mp-1095296,Dy4Te3S4,C2/m,11,1,4,2,7,Dy4S4Te3,90.0,-6.560044
mp-10953,Sc2CdS4,Fd-3m,14,2,3,1,4,CdSc2S4,90.0,10.832485
mp-1095468,Dy3Sc2S7,C2/m,12,2,5,1,7,Dy3Sc2S7,90.0,-10.979416
mp-1100884,Y6Mn11S20,R-3m,37,2,17,1,20,Mn11Y6S20,119.99999153796999,179.844777
mp-1103518,Dy(Mo3S4)2,R-3,15,2,4,1,4,DyMo3S4,120.00000546921622,11.377754
mp-1103562,Nb(Mo3S4)2,R-3,15,2,4,1,4,Mo3NbS4,119.99999813201939,11.051621
mp-1103974,La(Mo3S4)2,R-3,15,2,4,1,4,LaMo3S4,119.99999556819331,11.610146
mp-1103989,Nd(Mo3S4)2,R-3,15,2,4,1,4,Mo3NdS4,120.0000001325839,11.537816
mp-1104078,Y(Mo3S4)2,R-3,15,2,4,1,4,Mo3YS4,120.00000270822966,11.375111
mp-1104162,Mn2ZnS4,Fd-3m,14,2,3,1,4,Mn2ZnS4,90.0,10.312427
mp-1104180,Pr2Te5,Cmcm,14,1,2,1,5,Pr2Te5,90.0,4.464766
mp-1104449,Pr(Mo3S4)2,R-3,15,2,4,1,4,Mo3PrS4,119.99999947810629,11.583489
mp-1104677,Cd(Mo3S4)2,R-3,15,2,4,1,4,CdMo3S4,120.00000280777004,10.869876
mp-1105097,Ti4CoS8,C2/m,13,2,5,1,8,CoTi4S8,90.0,-5.861591
mp-1105614,NdScS3,Pnma,20,2,2,1,3,NdScS3,90.0,9.609433
mp-1105660,URuS3,Pnma,20,2,2,1,3,RuUS3,90.0,8.708518
mp-1105902,UCoS3,Pnma,20,2,2,1,3,CoUS3,90.0,8.396379
mp-1106085,Nb2PdS5,C2/m,16,2,3,1,5,Nb2PdS5,90.0,-14.999925
mp-1120816,Cu2SeS3,Cc,12,1,2,2,4,Cu2S3Se,90.0,-6.910139
mp-1173016,Nb15IrS32,C2/m,48,2,16,1,32,IrNb15S32,90.0,-12.704484
mp-1173110,Tb2EuS4,I-42d,14,2,3,1,4,EuTb2S4,90.0,8.426052
mp-1173526,Nb3NiS6,P6_322,20,2,4,1,6,Nb3NiS6,119.99999291748796,11.854699
mp-1180758,LaTe2,P4bm,24,1,1,1,2,LaTe2,90.0,-9.293205
mp-1181848,CdHgS4,I-4,6,2,2,1,4,CdHgS4,90.0,4.732855
mp-1184176,DyScS3,Pnma,20,2,2,1,3,DyScS3,90.0,9.559355
mp-1188199,Pr(YS2)3,P2_1/m,20,2,2,1,2,PrYS2,90.0,-10.754466
mp-1188216,Ce2Te3,Pnma,20,1,2,1,3,Ce2Te3,90.0,12.320472
mp-1188262,TbScS3,Pnma,20,2,2,1,3,ScTbS3,90.0,9.555817
mp-1188463,Th2FeS5,C2/c,16,2,3,1,5,FeTh2S5,90.0,-7.20784
mp-1188689,Nd(YS2)3,P2_1/m,20,2,2,1,2,NdYS2,90.0,-10.735787
mp-1188711,UVS3,Pnma,20,2,2,1,3,UVS3,90.0,8.968122
mp-1188815,U2CoS5,C2/c,16,2,3,1,5,CoU2S5,90.0,-6.870074
mp-1188929,Ti(NbS2)3,P6_322,20,2,2,1,2,NbTiS2,120.00000509996245,12.556707
mp-1189260,Nb3CrS6,P6_322,20,2,4,1,6,CrNb3S6,120.0000083033489,12.196207
mp-1189441,ThCrS3,Pnma,20,2,2,1,3,CrThS3,90.0,8.912472
mp-1189705,Ta9(CoS3)2,P-62m,17,2,10,1,3,CoTa9S3,119.9999964306816,3.3277
mp-1189927,EuZrS3,Pnma,20,2,2,1,3,EuZrS3,90.0,9.790363
mp-1189957,Ta3RhS6,P6_322,20,2,4,1,6,RhTa3S6,119.99999445120248,12.18669
mp-1189962,PrScS3,Pnma,20,2,2,1,3,PrScS3,90.0,9.62116
mp-1190092,Ta3VS6,P6_322,20,2,4,1,6,Ta3VS6,120.0000032821937,12.250224
mp-1190131,LaScS3,Pnma,20,2,2,1,3,LaScS3,90.0,9.653384
mp-1191191,La3Fe2S7,P6_3,24,2,5,1,7,Fe2La3S7,120.0000022449338,5.920318
mp-1191491,La4NiS7,P6_3,24,2,5,1,7,La4NiS7,90.0,-8.605407
mp-1191745,Sm4NiS7,P6_3,24,2,5,1,7,NiSm4S7,119.99999947124618,6.682556
mp-1191757,La4CoS7,P2_1,24,2,5,1,7,CoLa4S7,90.0,-8.635839
mp-1192173,La3Co2S7,P6_3,24,2,5,1,7,Co2La3S7,120.00000177351352,5.945057
mp-1192708,U8CoS17,C2/m,26,2,9,1,17,CoU8S17,90.0,-10.036645
mp-1192725,Pr4CuS7,P6_3,24,2,5,1,7,CuPr4S7,119.9999971308552,7.11307
mp-1192730,V(MoS2)2,C2/c,28,2,2,1,2,MoVS2,90.0,-11.643304
mp-1192773,Co(MoS2)2,C2/c,28,2,2,1,2,CoMoS2,90.0,-11.226352
mp-1192774,Hf9Re4S,P6_3/mmc,28,2,13,1,1,Hf9Re4S,120.000001966151,14.825832
mp-1192848,U8MnS17,C2/m,26,2,9,1,17,MnU8S17,90.0,-10.086813
mp-1192920,La4FeS7,P1,24,2,5,1,7,FeLa4S7,91.16921747615379,-8.640797
mp-1193030,Ce4CoS7,P2_1,24,2,5,1,7,Ce4CoS7,90.0,-8.265666
mp-1193219,Fe(MoS2)2,Cc,28,2,2,1,2,FeMoS2,90.0,-11.764501
mp-1193370,Nb2CuS4,Pnma,28,2,3,1,4,CuNb2S4,90.0,13.187726
mp-1193407,Dy2ZnS4,Pnma,28,2,3,1,4,Dy2ZnS4,90.0,13.563326
mp-1193731,U8VS17,C2/m,26,2,9,1,17,U8VS17,90.0,-10.089023
mp-1193754,U8TiS17,C2/m,26,2,9,1,17,TiU8S17,90.0,-10.181962
mp-1193946,Mn(NbS2)2,Pnma,28,2,2,1,2,MnNbS2,90.0,13.121112
mp-1194092,Hf9Mo4S,P6_3/mmc,28,2,13,1,1,Hf9Mo4S,119.99999620916626,8.530052
mp-1194113,Y2ZnS4,Pnma,28,2,3,1,4,Y2ZnS4,90.0,13.598706
mp-1194374,Nb4VS8,P6_3/mmc,26,2,5,1,8,Nb4VS8,119.99999273561544,12.271608
mp-1195795,La4(YS2)11,C2/m,37,2,5,1,2,La4YS2,90.0,-11.442832
mp-1195809,Gd2HfS5,Pnma,32,2,3,1,5,Gd2HfS5,90.0,11.578882
mp-1195848,U6Rh2S15,Im-3m,46,2,8,1,15,Rh2U6S15,90.0,13.028768
mp-1196123,Nd2HfS5,Pnma,32,2,3,1,5,HfNd2S5,90.0,11.693348
mp-1196300,Nd2ZrS5,Pnma,32,2,3,1,5,Nd2ZrS5,90.0,11.789543
mp-1196472,Pr2US5,Pnma,32,2,3,1,5,Pr2US5,90.0,11.990065
mp-1197050,Y2ZrS5,Pnma,32,2,3,1,5,Y2ZrS5,90.0,11.615667
mp-1197117,Pr4(YS2)11,C2/m,37,2,5,1,2,Pr4YS2,90.0,-11.430633
mp-1197619,La4(DyS2)11,C2/m,37,2,5,1,2,DyLa4S2,90.0,-11.422879
mp-1198001,Dy2HfS5,Pnma,32,2,3,1,5,Dy2HfS5,90.0,11.548461
mp-1198687,La2ZrS5,Pnma,32,2,3,1,5,La2ZrS5,90.0,11.545188
mp-1198956,Nd2ThS5,Pnma,32,2,3,1,5,Nd2ThS5,90.0,12.070859
mp-1199023,Dy2ZrS5,Pnma,32,2,3,1,5,Dy2ZrS5,90.0,11.582614
mp-1199162,La2US5,Pnma,32,2,3,1,5,La2US5,90.0,11.999251
mp-1199263,Ce4(YS2)11,C2/m,37,2,5,1,2,Ce4YS2,90.0,-11.403151
mp-1199685,Cu2(ReS2)3,C2/c,44,2,3,1,2,Cu2ReS2,90.0,-11.761503
mp-1200233,DyAgS2,P2_1,32,2,2,1,2,AgDyS2,90.0,-12.714258
mp-1200242,GdAgS2,P2_1,32,2,2,1,2,AgGdS2,90.0,-12.792126
mp-1200447,LaYS3,P2_1/m,40,2,2,1,3,LaYS3,90.0,-21.401645
mp-1201221,Ag2(RhS)15,Pm-3m,64,2,3,1,1,Ag2RhS,90.0,10.165258
mp-1202195,Pr2ZrS5,Pnma,32,2,3,1,5,Pr2ZrS5,90.0,11.837529
mp-1202577,Pr2ThS5,Pnma,32,2,3,1,5,Pr2ThS5,90.0,12.100709
mp-1202732,Pd2(RhS)15,Pm-3m,64,2,3,1,1,Pd2RhS,90.0,10.069421
mp-1202803,Pu2US5,Pnma,32,2,3,1,5,Pu2US5,90.0,11.281627
mp-1202826,Gd2US5,Pnma,32,2,3,1,5,Gd2US5,90.0,11.728354
mp-1203122,Ce2ZrS5,Pnma,32,2,3,1,5,Ce2ZrS5,90.0,11.656252
mp-1203224,Pr2HfS5,Pnma,32,2,3,1,5,HfPr2S5,90.0,11.76241
mp-1203455,Sm2ThS5,Pnma,32,2,3,1,5,Sm2ThS5,90.0,12.002592
mp-1206548,Nb2NiS4,P-3m1,7,2,3,1,4,Nb2NiS4,119.99999696262253,13.199826
mp-1207423,Zr9W4S,P6_3/mmc,28,2,13,1,1,W4Zr9S,120.00000735689194,8.686157
mp-1207526,Zr6FeS2,Pnnm,36,2,7,1,2,FeZr6S2,90.0,15.700291
mp-1208142,V3(CuS2)4,R3m,15,2,4,1,2,CuV3S2,90.0,-5.998903
mp-1208409,Ta3CoS6,P6_322,20,2,4,1,6,CoTa3S6,120.00000559590087,11.847298
mp-1209031,Sm3CrS6,Pnnm,40,2,4,1,6,CrSm3S6,90.0,16.184766
mp-1209414,Sm4MnS7,P6_3,24,2,5,1,7,MnSm4S7,119.99999855079903,6.847441
mp-1209456,Sm4CrS7,P6_3,24,2,5,1,7,CrSm4S7,119.99999741049277,6.749995
mp-1209912,Pd3Se2S,P4_2/mbc,48,1,3,2,3,Pd3SSe2,90.0,7.045678
mp-1209934,Pr4NiS7,P6_3,24,2,5,1,7,NiPr4S7,120.00000056275314,6.733463
mp-1210258,Pr4CrS7,P6_3,24,2,5,1,7,CrPr4S7,119.99999954632283,6.827886
mp-1210690,Pr4CoS7,P6_3,24,2,5,1,7,CoPr4S7,120.000004101478,6.858268
mp-1210765,Nd4NiS7,P6_3,24,2,5,1,7,Nd4NiS7,119.99999813422372,6.861662
mp-1211125,Nd4CoS7,P6_3,24,2,5,1,7,CoNd4S7,120.00000190709676,6.751429
mp-1211293,La(YS2)3,P2_1/m,20,2,2,1,2,LaYS2,90.0,-10.809115
mp-1211414,LaTiS3,Pnma,20,2,2,1,3,LaTiS3,90.0,13.248556
mp-1211918,La3Cu2S7,P6_3,24,2,5,1,7,Cu2La3S7,120.00000557759597,5.757603
mp-1212783,Gd3TiS6,Pnnm,40,2,4,1,6,Gd3TiS6,90.0,16.249725
mp-1213337,Gd3ScS6,Pnnm,40,2,4,1,6,Gd3ScS6,90.0,16.35337
mp-1214220,Ce2Fe2S5,Cmc2_1,18,2,4,1,5,Ce2Fe2S5,90.0,10.919609
mp-1214308,Ce3CrS6,Pnnm,40,2,4,1,6,Ce3CrS6,90.0,16.118902
mp-1215176,ZrUS2,R-3m,4,2,2,1,2,UZrS2,119.9999870580377,18.179139
mp-1215189,ZrTiS4,P-3m1,6,2,2,1,4,TiZrS4,120.00000305964016,12.29576
mp-1215430,Zn2SeS,P-4m2,4,1,2,2,2,Zn2SSe,90.0,5.590738
mp-1215436,Zn2FeS3,P3m1,6,2,3,1,3,FeZn2S3,120.00000125862283,9.453132
mp-1215446,Zn2SeS,R3m,4,1,2,2,2,Zn2SSe,119.99999733594714,19.390342
mp-1215447,ZnHgS2,R3m,4,2,2,1,2,HgZnS2,119.99998586076859,19.950903
mp-1215469,ZnFeS2,R3m,4,2,2,1,2,FeZnS2,120.000007515476,18.841333
mp-1215500,Zn3CoS4,P-4m2,8,2,4,1,4,CoZn3S4,90.0,10.791487
mp-1215515,Zn4FeS5,R3m,10,2,5,1,5,FeZn4S5,119.99998688176478,47.12492
mp-1215530,Zn2FeS3,Imm2,6,2,3,1,3,FeZn2S3,90.0,11.518915
mp-1215566,Zn5Se4S,R3m,10,1,5,2,5,Zn5SSe4,119.99998274879513,49.336285
mp-1215573,Zr2CoS4,Cm,7,2,3,1,4,CoZr2S4,90.0,-5.572789
mp-1215577,Zr2NiS4,Cm,7,2,3,1,4,NiZr2S4,90.0,-5.568929
mp-1215578,Zn4CdS5,R-3m,10,2,5,1,5,CdZn4S5,120.00000278175187,45.086275
mp-1215580,Zn5SeS4,I-4m2,10,1,5,2,5,Zn5S4Se,90.0,27.508371
mp-1215597,Zr2(SeS)3,Pm,8,1,2,2,2,Zr2SSe,90.0,-9.551854
mp-1215640,Zn2FeS3,R3,12,2,3,1,3,FeZn2S3,119.99999805979657,18.919322