material_id,pretty_formula,count_unique_TM,count_TM,count_unique_C,count_C,consensus_formula,caxis
mp-1027483,Mo2Se3S,1,2,2,4,Mo2SSe3,37.295629
mp-1027569,Mo3WS8,2,4,1,8,Mo3WS8,35.845802
mp-1027580,MoSeS,1,1,2,2,MoSSe,36.841711
mp-1027645,Mo3WS8,2,4,1,8,Mo3WS8,35.827071
mp-1027647,MoWS4,2,2,1,4,MoWS4,35.847065
mp-1027687,MoSeS,1,1,2,2,MoSSe,36.45187
mp-1027696,TeMo2S3,1,2,2,4,Mo2S3Te,37.214717
mp-1027738,TeMoS,1,1,2,2,MoSTe,39.730027
mp-1027890,Mo2SeS3,1,2,2,4,Mo2S3Se,37.888409
mp-1028487,W2SeS3,1,2,2,4,W2S3Se,36.401228
mp-1028492,TeW2S3,1,2,2,4,W2S3Te,37.226062
mp-1028512,TeW2S3,1,2,2,4,W2S3Te,42.007485
mp-1028586,Te2W,1,1,1,2,WTe2,40.139184
mp-1028604,TeWS,1,1,2,2,WSTe,38.368303
mp-1028690,TeWS,1,1,2,2,WSTe,38.390317
mp-1028755,Te3W2S,1,2,2,4,W2STe3,39.226005
mp-1028761,TeWS,1,1,2,2,WSTe,39.39591
mp-1028769,W2Se3S,1,2,2,4,W2SSe3,37.444283
mp-1029246,MoW3S8,2,4,1,8,MoW3S8,35.845072
mp-1030461,TeMoS,1,1,2,2,MoSTe,38.270308
mp-10328,LaCrS3,2,2,1,3,CrLaS3,13.140695
mp-10533,YCuS2,2,2,1,2,CuYS2,13.488847
mp-10652,SmTe,1,1,1,1,SmTe,3.845178
mp-10748,TaCu3S4,2,4,1,4,Cu3TaS4,5.533429
mp-10754,Fe(RhS2)2,2,2,1,2,FeRhS2,9.913622
mp-1077935,V2CoS4,2,3,1,4,CoV2S4,-5.190556
mp-1078000,Mn(CrS2)2,2,2,1,2,CrMnS2,-5.152539
mp-1078077,V2CrS4,2,3,1,4,CrV2S4,-5.281735
mp-1078387,FeCu3S4,2,4,1,4,Cu3FeS4,10.335488
mp-1078780,ZnCd3S4,2,4,1,4,Cd3ZnS4,5.813462
mp-1080726,Zn3CrS4,2,4,1,4,CrZn3S4,5.46733
mp-10933,Nd2TeS2,1,2,2,3,Nd2S2Te,7.773168
mp-1094066,ScAgS2,2,2,1,2,AgScS2,20.711629
mp-1094100,Nb4CoS8,2,5,1,8,CoNb4S8,11.803449
mp-1095296,Dy4Te3S4,1,4,2,7,Dy4S4Te3,-6.560044
mp-10953,Sc2CdS4,2,3,1,4,CdSc2S4,10.832485
mp-1095468,Dy3Sc2S7,2,5,1,7,Dy3Sc2S7,-10.979416
mp-1100884,Y6Mn11S20,2,17,1,20,Mn11Y6S20,179.844777
mp-1103518,Dy(Mo3S4)2,2,4,1,4,DyMo3S4,11.377754
mp-1103562,Nb(Mo3S4)2,2,4,1,4,Mo3NbS4,11.051621
mp-1103974,La(Mo3S4)2,2,4,1,4,LaMo3S4,11.610146
mp-1103989,Nd(Mo3S4)2,2,4,1,4,Mo3NdS4,11.537816
mp-1104078,Y(Mo3S4)2,2,4,1,4,Mo3YS4,11.375111
mp-1104162,Mn2ZnS4,2,3,1,4,Mn2ZnS4,10.312427
mp-1104180,Pr2Te5,1,2,1,5,Pr2Te5,4.464766
mp-1104449,Pr(Mo3S4)2,2,4,1,4,Mo3PrS4,11.583489
mp-1104677,Cd(Mo3S4)2,2,4,1,4,CdMo3S4,10.869876
mp-1105097,Ti4CoS8,2,5,1,8,CoTi4S8,-5.861591
mp-1105614,NdScS3,2,2,1,3,NdScS3,9.609433
mp-1105660,URuS3,2,2,1,3,RuUS3,8.708518
mp-1105902,UCoS3,2,2,1,3,CoUS3,8.396379
mp-1106085,Nb2PdS5,2,3,1,5,Nb2PdS5,-14.999925
mp-1120816,Cu2SeS3,1,2,2,4,Cu2S3Se,-6.910139
mp-1173016,Nb15IrS32,2,16,1,32,IrNb15S32,-12.704484
mp-1173110,Tb2EuS4,2,3,1,4,EuTb2S4,8.426052
mp-1173526,Nb3NiS6,2,4,1,6,Nb3NiS6,11.854699
mp-1180758,LaTe2,1,1,1,2,LaTe2,-9.293205
mp-1181848,CdHgS4,2,2,1,4,CdHgS4,4.732855
mp-1184176,DyScS3,2,2,1,3,DyScS3,9.559355
mp-1188199,Pr(YS2)3,2,2,1,2,PrYS2,-10.754466
mp-1188216,Ce2Te3,1,2,1,3,Ce2Te3,12.320472
mp-1188262,TbScS3,2,2,1,3,ScTbS3,9.555817
mp-1188463,Th2FeS5,2,3,1,5,FeTh2S5,-7.20784
mp-1188689,Nd(YS2)3,2,2,1,2,NdYS2,-10.735787
mp-1188711,UVS3,2,2,1,3,UVS3,8.968122
mp-1188815,U2CoS5,2,3,1,5,CoU2S5,-6.870074
mp-1188929,Ti(NbS2)3,2,2,1,2,NbTiS2,12.556707
mp-1189260,Nb3CrS6,2,4,1,6,CrNb3S6,12.196207
mp-1189441,ThCrS3,2,2,1,3,CrThS3,8.912472
mp-1189705,Ta9(CoS3)2,2,10,1,3,CoTa9S3,3.3277
mp-1189927,EuZrS3,2,2,1,3,EuZrS3,9.790363
mp-1189957,Ta3RhS6,2,4,1,6,RhTa3S6,12.18669
mp-1189962,PrScS3,2,2,1,3,PrScS3,9.62116
mp-1190092,Ta3VS6,2,4,1,6,Ta3VS6,12.250224
mp-1190131,LaScS3,2,2,1,3,LaScS3,9.653384
mp-1191191,La3Fe2S7,2,5,1,7,Fe2La3S7,5.920318
mp-1191491,La4NiS7,2,5,1,7,La4NiS7,-8.605407
mp-1191745,Sm4NiS7,2,5,1,7,NiSm4S7,6.682556
mp-1191757,La4CoS7,2,5,1,7,CoLa4S7,-8.635839
mp-1192173,La3Co2S7,2,5,1,7,Co2La3S7,5.945057
mp-1192708,U8CoS17,2,9,1,17,CoU8S17,-10.036645
mp-1192725,Pr4CuS7,2,5,1,7,CuPr4S7,7.11307
mp-1192730,V(MoS2)2,2,2,1,2,MoVS2,-11.643304
mp-1192773,Co(MoS2)2,2,2,1,2,CoMoS2,-11.226352
mp-1192774,Hf9Re4S,2,13,1,1,Hf9Re4S,14.825832
mp-1192848,U8MnS17,2,9,1,17,MnU8S17,-10.086813
mp-1192920,La4FeS7,2,5,1,7,FeLa4S7,-8.640797
mp-1193030,Ce4CoS7,2,5,1,7,Ce4CoS7,-8.265666
mp-1193219,Fe(MoS2)2,2,2,1,2,FeMoS2,-11.764501
mp-1193370,Nb2CuS4,2,3,1,4,CuNb2S4,13.187726
mp-1193407,Dy2ZnS4,2,3,1,4,Dy2ZnS4,13.563326
mp-1193731,U8VS17,2,9,1,17,U8VS17,-10.089023
mp-1193754,U8TiS17,2,9,1,17,TiU8S17,-10.181962
mp-1193946,Mn(NbS2)2,2,2,1,2,MnNbS2,13.121112
mp-1194092,Hf9Mo4S,2,13,1,1,Hf9Mo4S,8.530052
mp-1194113,Y2ZnS4,2,3,1,4,Y2ZnS4,13.598706
mp-1194374,Nb4VS8,2,5,1,8,Nb4VS8,12.271608
mp-1195795,La4(YS2)11,2,5,1,2,La4YS2,-11.442832
mp-1195809,Gd2HfS5,2,3,1,5,Gd2HfS5,11.578882
mp-1195848,U6Rh2S15,2,8,1,15,Rh2U6S15,13.028768
mp-1196123,Nd2HfS5,2,3,1,5,HfNd2S5,11.693348
mp-1196300,Nd2ZrS5,2,3,1,5,Nd2ZrS5,11.789543
mp-1196472,Pr2US5,2,3,1,5,Pr2US5,11.990065
mp-1197050,Y2ZrS5,2,3,1,5,Y2ZrS5,11.615667
mp-1197117,Pr4(YS2)11,2,5,1,2,Pr4YS2,-11.430633
mp-1197619,La4(DyS2)11,2,5,1,2,DyLa4S2,-11.422879
mp-1198001,Dy2HfS5,2,3,1,5,Dy2HfS5,11.548461
mp-1198687,La2ZrS5,2,3,1,5,La2ZrS5,11.545188
mp-1198956,Nd2ThS5,2,3,1,5,Nd2ThS5,12.070859
mp-1199023,Dy2ZrS5,2,3,1,5,Dy2ZrS5,11.582614
mp-1199162,La2US5,2,3,1,5,La2US5,11.999251
mp-1199263,Ce4(YS2)11,2,5,1,2,Ce4YS2,-11.403151
mp-1199685,Cu2(ReS2)3,2,3,1,2,Cu2ReS2,-11.761503
mp-1200233,DyAgS2,2,2,1,2,AgDyS2,-12.714258
mp-1200242,GdAgS2,2,2,1,2,AgGdS2,-12.792126
mp-1200447,LaYS3,2,2,1,3,LaYS3,-21.401645
mp-1201221,Ag2(RhS)15,2,3,1,1,Ag2RhS,10.165258
mp-1202195,Pr2ZrS5,2,3,1,5,Pr2ZrS5,11.837529
mp-1202577,Pr2ThS5,2,3,1,5,Pr2ThS5,12.100709
mp-1202732,Pd2(RhS)15,2,3,1,1,Pd2RhS,10.069421
mp-1202803,Pu2US5,2,3,1,5,Pu2US5,11.281627
mp-1202826,Gd2US5,2,3,1,5,Gd2US5,11.728354
mp-1203122,Ce2ZrS5,2,3,1,5,Ce2ZrS5,11.656252
mp-1203224,Pr2HfS5,2,3,1,5,HfPr2S5,11.76241
mp-1203455,Sm2ThS5,2,3,1,5,Sm2ThS5,12.002592
mp-1206548,Nb2NiS4,2,3,1,4,Nb2NiS4,13.199826
mp-1207423,Zr9W4S,2,13,1,1,W4Zr9S,8.686157
mp-1207526,Zr6FeS2,2,7,1,2,FeZr6S2,15.700291
mp-1208142,V3(CuS2)4,2,4,1,2,CuV3S2,-5.998903
mp-1208409,Ta3CoS6,2,4,1,6,CoTa3S6,11.847298
mp-1209031,Sm3CrS6,2,4,1,6,CrSm3S6,16.184766
mp-1209414,Sm4MnS7,2,5,1,7,MnSm4S7,6.847441
mp-1209456,Sm4CrS7,2,5,1,7,CrSm4S7,6.749995
mp-1209912,Pd3Se2S,1,3,2,3,Pd3SSe2,7.045678
mp-1209934,Pr4NiS7,2,5,1,7,NiPr4S7,6.733463
mp-1210258,Pr4CrS7,2,5,1,7,CrPr4S7,6.827886
mp-1210690,Pr4CoS7,2,5,1,7,CoPr4S7,6.858268
mp-1210765,Nd4NiS7,2,5,1,7,Nd4NiS7,6.861662
mp-1211125,Nd4CoS7,2,5,1,7,CoNd4S7,6.751429
mp-1211293,La(YS2)3,2,2,1,2,LaYS2,-10.809115
mp-1211414,LaTiS3,2,2,1,3,LaTiS3,13.248556
mp-1211918,La3Cu2S7,2,5,1,7,Cu2La3S7,5.757603
mp-1212783,Gd3TiS6,2,4,1,6,Gd3TiS6,16.249725
mp-1213337,Gd3ScS6,2,4,1,6,Gd3ScS6,16.35337
mp-1214220,Ce2Fe2S5,2,4,1,5,Ce2Fe2S5,10.919609
mp-1214308,Ce3CrS6,2,4,1,6,Ce3CrS6,16.118902
mp-1215176,ZrUS2,2,2,1,2,UZrS2,18.179139
mp-1215189,ZrTiS4,2,2,1,4,TiZrS4,12.29576
mp-1215430,Zn2SeS,1,2,2,2,Zn2SSe,5.590738
mp-1215436,Zn2FeS3,2,3,1,3,FeZn2S3,9.453132
mp-1215446,Zn2SeS,1,2,2,2,Zn2SSe,19.390342
mp-1215447,ZnHgS2,2,2,1,2,HgZnS2,19.950903
mp-1215469,ZnFeS2,2,2,1,2,FeZnS2,18.841333
mp-1215500,Zn3CoS4,2,4,1,4,CoZn3S4,10.791487
mp-1215515,Zn4FeS5,2,5,1,5,FeZn4S5,47.12492
mp-1215530,Zn2FeS3,2,3,1,3,FeZn2S3,11.518915
mp-1215566,Zn5Se4S,1,5,2,5,Zn5SSe4,49.336285
mp-1215573,Zr2CoS4,2,3,1,4,CoZr2S4,-5.572789
mp-1215577,Zr2NiS4,2,3,1,4,NiZr2S4,-5.568929
mp-1215578,Zn4CdS5,2,5,1,5,CdZn4S5,45.086275
mp-1215580,Zn5SeS4,1,5,2,5,Zn5S4Se,27.508371
mp-1215597,Zr2(SeS)3,1,2,2,2,Zr2SSe,-9.551854
mp-1215640,Zn2FeS3,2,3,1,3,FeZn2S3,18.919322
mp-1215765,YUS2,2,2,1,2,UYS2,19.595827
mp-1215784,Zn4CdS5,2,5,1,5,CdZn4S5,32.335411
mp-1216058,Y2TeS2,1,2,2,3,Y2S2Te,13.556012
mp-1216101,Y4US7,2,5,1,7,UY4S7,-11.259627
mp-1216108,Y4CdS7,2,5,1,7,CdY4S7,-11.225523
mp-1216124,Y4CrS7,2,5,1,7,CrY4S7,-10.957502
mp-1216385,VCuS4,2,2,1,4,CuVS4,9.643578
mp-1216534,U2SeS,1,2,2,2,U2SSe,5.599228
mp-1216571,V2MoS4,2,3,1,4,MoV2S4,-5.385488
mp-1216698,TiSeS,1,1,2,2,TiSSe,-6.461255
mp-1216784,TiMoS3,2,2,1,3,MoTiS3,-8.440512
mp-1216843,V(CrS2)2,2,2,1,2,CrVS2,-5.296152
mp-1216896,TiCuS4,2,2,1,4,CuTiS4,9.67767
mp-1216903,TiCrS2,2,2,1,2,CrTiS2,5.930335
mp-1216997,V(Cr7S10)2,2,8,1,10,Cr7VS10,-27.021305
mp-1217001,U3TiS6,2,4,1,6,TiU3S6,10.494713
mp-1217134,Ti3VS4,2,4,1,4,Ti3VS4,-6.37541
mp-1217140,Ti3(SeS2)2,1,3,2,3,Ti3S2Se,18.481287
mp-1217143,Ti3AgS6,2,4,1,6,AgTi3S6,19.378142
mp-1217148,Ti3VS6,2,4,1,6,Ti3VS6,17.337315
mp-1217178,Ti3FeS6,2,4,1,6,FeTi3S6,16.7199
mp-1217196,Ti5MnS10,2,6,1,10,MnTi5S10,29.960337
mp-1217205,Ti5CuS10,2,6,1,10,CuTi5S10,7.365753
mp-1217266,Ti(MoS2)2,2,2,1,2,MoTiS2,-5.472505
mp-1217360,Ti(CrS2)2,2,2,1,2,CrTiS2,-5.338229
mp-1217436,ThU2S5,2,3,1,5,ThU2S5,11.822763
mp-1217524,Th2(Mo3S4)5,2,5,1,4,Mo3Th2S4,13.257438
mp-1217634,Tb3Sc2S7,2,5,1,7,Sc2Tb3S7,-11.035198
mp-1217639,Tb4CeS7,2,5,1,7,CeTb4S7,-11.308558
mp-1217708,Tb2MnS4,2,3,1,4,MnTb2S4,12.90925
mp-1217770,Ta2AgS4,2,3,1,4,AgTa2S4,14.00884
mp-1217790,Ta(Mo2S5)2,2,3,1,5,Mo2TaS5,7.837836
mp-1217794,Ta10SeS3,1,10,2,4,Ta10S3Se,22.160897
mp-1217848,Tb(CuS)3,2,2,1,1,CuTbS,19.146946
mp-1217910,TaMoS4,2,2,1,4,MoTaS4,-6.296902
mp-1218002,Ta2MoS6,2,3,1,6,MoTa2S6,-6.393732
mp-1218051,Ta4MoS8,2,5,1,8,MoTa4S8,25.410429
mp-1218053,Ta3(CuS3)2,2,4,1,3,CuTa3S3,13.22237
mp-1218056,Ta4AgS8,2,5,1,8,AgTa4S8,-13.610973
mp-1218062,Ta3WS8,2,4,1,8,Ta3WS8,26.050152
mp-1219053,SmEuS2,2,2,1,2,EuSmS2,5.767219
mp-1219055,SmGdS3,2,2,1,3,GdSmS3,15.359406
mp-1219140,Sm3YS4,2,4,1,4,Sm3YS4,-6.830165
mp-1219173,Sm4EuS5,2,5,1,5,EuSm4S5,48.921321
mp-1219501,RuSeS,1,1,2,2,RuSSe,5.836325
mp-1219515,Ru2SeS3,1,2,2,4,Ru2S3Se,-5.749197
mp-1219720,PtSeS,1,1,2,2,PtSSe,5.42638
mp-1219726,PrUS2,2,2,1,2,PrUS2,20.024627
mp-1219732,Pt4SeS3,1,4,2,4,Pt4S3Se,12.405952
mp-1219738,PrSm3S4,2,4,1,4,PrSm3S4,39.759284
mp-1219823,PrU2S5,2,3,1,5,PrU2S5,11.816575
mp-1219871,PdSeS,1,1,2,2,PdSSe,8.31084
mp-1220154,NdU2S5,2,3,1,5,NdU2S5,11.786078
mp-1220442,Nb6ZnS8,2,7,1,8,Nb6ZnS8,3.388832
mp-1220444,Nb6CdS8,2,7,1,8,CdNb6S8,3.380338
mp-1220455,NbW3S8,2,4,1,8,NbW3S8,13.071172
mp-1220620,Nb3WS8,2,4,1,8,Nb3WS8,76.438913
mp-1220692,Nb3IrS8,2,4,1,8,IrNb3S8,-6.267001
mp-1220696,Nb2AgS4,2,3,1,4,AgNb2S4,14.566298
mp-1220938,Nb3(CuS3)2,2,4,1,3,CuNb3S3,40.714476
mp-1221404,MoSeS,1,1,2,2,MoSSe,14.262654
mp-1221485,Mo2SeS3,1,2,2,4,Mo2S3Se,14.163127
mp-1221501,Mo3(SeS)2,1,3,2,2,Mo3SSe,6.604179
mp-1221502,MnZnS2,2,2,1,2,MnZnS2,6.392648
mp-1221529,MnZnS4,2,2,1,4,MnZnS4,-5.741799
mp-1221530,MnZn4S5,2,5,1,5,MnZn4S5,-6.349264
mp-1221533,MnZn4S5,2,5,1,5,MnZn4S5,31.70936
mp-1221534,MnZn3S4,2,4,1,4,MnZn3S4,12.732541
mp-1221581,MnHg2S3,2,3,1,3,Hg2MnS3,10.126695
mp-1221590,MnHg3S4,2,4,1,4,Hg3MnS4,40.860196
mp-1221595,MnHg4S5,2,5,1,5,Hg4MnS5,29.678879
mp-1221643,MnCdS2,2,2,1,2,CdMnS2,6.644164
mp-1221701,MnVS2,2,2,1,2,MnVS2,16.711595
mp-1221703,MnCd2S3,2,3,1,3,Cd2MnS3,-9.466937
mp-1221706,Mn4CdS5,2,5,1,5,CdMn4S5,45.446005
mp-1221772,MnCd4S5,2,5,1,5,Cd4MnS5,-6.764345
mp-1221777,MnCd4S5,2,5,1,5,Cd4MnS5,-9.529383
mp-1221805,Mn4FeS5,2,5,1,5,FeMn4S5,43.873548
mp-1221850,Mn4CoS5,2,5,1,5,CoMn4S5,42.864607
mp-1222040,Mn(CuS)2,2,2,1,1,CuMnS,10.936706
mp-1222958,LaEuS2,2,2,1,2,EuLaS2,20.303144
mp-1223418,La2CeS4,2,3,1,4,CeLa2S4,8.689195
mp-1223955,Hg2TeS,1,2,2,2,Hg2STe,21.980955
mp-1224418,Hf2(SeS)3,1,2,2,2,Hf2SSe,-9.49811
mp-1224432,Hf(US)3,2,2,1,1,HfUS,5.288358
mp-1224454,Hf3CoS6,2,4,1,6,CoHf3S6,17.276002
mp-1224473,Hf2NiS4,2,3,1,4,Hf2NiS4,-5.42483
mp-1224493,Hf4FeS8,2,5,1,8,FeHf4S8,-6.216645
mp-1224522,La9Mn5S21,2,14,1,21,La9Mn5S21,17.474509
mp-1224623,Hf8Mo5S,2,13,1,1,Hf8Mo5S,-7.664851
mp-1224776,Gd3Sc2S7,2,5,1,7,Gd3Sc2S7,-11.093746
mp-1225004,FeCoS4,2,2,1,4,CoFeS4,-5.462084
mp-1225090,FeNiS2,2,2,1,2,FeNiS2,11.411231
mp-1225163,Fe2SeS,1,2,2,2,Fe2SSe,5.658565
mp-1225191,Fe3Rh3S8,2,6,1,8,Fe3Rh3S8,16.554314
mp-1225204,Fe3(Se2S)2,1,3,2,3,Fe3SSe2,-10.691952
mp-1225337,Dy4MnS7,2,5,1,7,Dy4MnS7,-11.080797
mp-1225651,DyCrS3,2,2,1,3,CrDyS3,16.20422
mp-1225702,CuNi3S8,2,4,1,8,CuNi3S8,9.755151
mp-1225747,CuSeS,1,1,2,2,CuSSe,5.985369
mp-1225772,Cu3Pd13S7,2,16,1,7,Cu3Pd13S7,7.744656
mp-1226019,Co5NiS8,2,6,1,8,Co5NiS8,9.302891
mp-1226056,Co5CuS8,2,6,1,8,Co5CuS8,9.386645
mp-1226064,CoNiS4,2,2,1,4,CoNiS4,-5.585265
mp-1226070,CoCuS4,2,2,1,4,CoCuS4,-5.741614
mp-1226106,CoRhS4,2,2,1,4,CoRhS4,-5.638211
mp-1226130,Cr5NiS8,2,6,1,8,Cr5NiS8,-10.903898
mp-1226263,Cr11NiS16,2,12,1,16,Cr11NiS16,8.225788
mp-1226267,Cr2SeS,1,2,2,2,Cr2SSe,6.05208
mp-1226292,Cr4(SeS)3,1,4,2,2,Cr4SSe,16.672006
mp-1226328,Cr4Te3S,1,4,2,4,Cr4STe3,-3.45875
mp-1226375,Cr3Rh3S8,2,6,1,8,Cr3Rh3S8,6.597495
mp-1226465,Co3Ni3S8,2,6,1,8,Co3Ni3S8,16.169332
mp-1226504,Co(NiS2)2,2,2,1,2,CoNiS2,-5.911825
mp-1226520,CeTh2S3,2,3,1,3,CeTh2S3,9.71367
mp-1226610,CeY4S7,2,5,1,7,CeY4S7,-11.325874
mp-1226713,CeDy4S7,2,5,1,7,CeDy4S7,-11.316788
mp-1226737,Ce2SeS,1,2,2,2,Ce2SSe,5.827386
mp-1226812,Ce2ThS3,2,3,1,3,Ce2ThS3,9.84608
mp-1226820,Cd5TeS4,1,5,2,5,Cd5S4Te,30.167327
mp-1226846,Cd5Te4S,1,5,2,5,Cd5STe4,56.196782
mp-1226907,Cd3FeS4,2,4,1,4,Cd3FeS4,11.641501
mp-1226929,Cd4CoS5,2,5,1,5,Cd4CoS5,-15.726575
mp-1226961,Ce(PrS2)2,2,2,1,2,CePrS2,8.646427
mp-1226993,La9Ni5S21,2,14,1,21,La9Ni5S21,11.292212
mp-1227026,Cd4FeS5,2,5,1,5,Cd4FeS5,17.82525
mp-1227523,CeU2S5,2,3,1,5,CeU2S5,11.654889
mp-1232268,Cr2AgS4,2,3,1,4,AgCr2S4,-5.39827
mp-1232346,Cr2AgS4,2,3,1,4,AgCr2S4,11.939822
mp-1237864,Nb2CuS4,2,3,1,4,CuNb2S4,13.518351
mp-1238784,Cr2HgS4,2,3,1,4,Cr2HgS4,-6.725468
mp-1238791,Cr2CuS4,2,3,1,4,Cr2CuS4,-5.098944
mp-1238836,Cr2HgS4,2,3,1,4,Cr2HgS4,12.853769
mp-1238867,Cr2CuS4,2,3,1,4,Cr2CuS4,12.237567
mp-1239173,Cr2AgS4,2,3,1,4,AgCr2S4,13.147424
mp-1239177,Cr2AgS4,2,3,1,4,AgCr2S4,12.583168
mp-1239184,Cr2HgS4,2,3,1,4,Cr2HgS4,13.422386
mp-14025,Zr2CuS4,2,3,1,4,CuZr2S4,10.448072
mp-1492,CdTe,1,1,1,1,CdTe,10.499976
mp-15613,Cu(RhS2)2,2,2,1,2,CuRhS2,9.881729
mp-15958,Nb3VS6,2,4,1,6,Nb3VS6,12.230195
mp-15973,Cr2HgS4,2,3,1,4,Cr2HgS4,10.346049
mp-16684,PrCuS2,2,2,1,2,CuPrS2,-6.85945
mp-16919,Y2HfS5,2,3,1,5,HfY2S5,11.570741
mp-17105,Hf9V4S,2,13,1,1,Hf9V4S,8.412543
mp-19866,UTeS,1,1,2,2,USTe,8.961132
mp-20499,Sc2FeS4,2,3,1,4,FeSc2S4,10.506357
mp-20961,EuPd3S4,2,4,1,4,EuPd3S4,6.738937
mp-21019,Cr2FeS4,2,3,1,4,Cr2FeS4,10.010229
mp-2127,Pr3Te4,1,3,1,4,Pr3Te4,9.602001
mp-21338,U(Mo3S4)2,2,4,1,4,Mo3US4,11.441487
mp-21871,CeCrS3,2,2,1,3,CeCrS3,12.9158
mp-22063,UCrS3,2,2,1,3,CrUS3,8.867984
mp-22119,U(PdS2)2,2,2,1,2,PdUS2,11.875438
mp-22613,Nb3FeS6,2,4,1,6,FeNb3S6,12.149795
mp-22658,Co2NiS4,2,3,1,4,Co2NiS4,9.325306
mp-22803,Cr2CuS4,2,3,1,4,Cr2CuS4,9.843137
mp-2550,NdTe2,1,1,1,2,NdTe2,9.189379
mp-27380,FeMo3S4,2,4,1,4,FeMo3S4,6.46955
mp-27512,Cr2NiS4,2,3,1,4,Cr2NiS4,-5.171076
mp-27554,Ag3AuS2,2,4,1,2,Ag3AuS2,9.874385
mp-28308,Ta2NiS5,2,3,1,5,NiTa2S5,15.211997
mp-28356,U6Cu2S13,2,8,1,13,Cu2U6S13,-13.824836
mp-28507,La8Nb7S22,2,15,1,22,La8Nb7S22,5.839377
mp-2889,LaPd3S4,2,4,1,4,LaPd3S4,6.796806
mp-28941,HfAg2S3,2,3,1,3,Ag2HfS3,12.773424
mp-29163,Ag2TeS3,1,2,2,4,Ag2S3Te,-7.299217
mp-29211,V4Cu3S8,2,7,1,8,Cu3V4S8,-6.238982
mp-29580,Ta9(CoS3)2,2,10,1,3,CoTa9S3,6.610844
mp-29790,U3Te5,1,3,1,5,U3Te5,16.264737
mp-2995,La2Fe2S5,2,4,1,5,Fe2La2S5,11.308032
mp-30075,Ti4FeS8,2,5,1,8,FeTi4S8,-5.837448
mp-3102,TaCuS3,2,2,1,3,CuTaS3,11.951226
mp-33449,Tb5AgS8,2,6,1,8,AgTb5S8,8.395027
mp-33670,NbIrS4,2,2,1,4,IrNbS4,-5.148374
mp-34009,Ce(SmS2)2,2,2,1,2,CeSmS2,8.546004
mp-34145,Ce2CdS4,2,3,1,4,CdCe2S4,8.854025
mp-34376,Tb2CdS4,2,3,1,4,CdTb2S4,8.636473
mp-34460,Ag3AuS2,2,4,1,2,Ag3AuS2,8.619296
mp-34486,Pr5AgS8,2,6,1,8,AgPr5S8,8.704152
mp-34982,Ag3AuS2,2,4,1,2,Ag3AuS2,5.822238
mp-35512,Dy5AgS8,2,6,1,8,AgDy5S8,8.367827
mp-35785,Y2CdS4,2,3,1,4,CdY2S4,11.313983
mp-3581,Ta4MnS8,2,5,1,8,MnTa4S8,12.497301
mp-35835,Ag(AuS)2,2,2,1,1,AgAuS,-7.287524
mp-36052,ScUS2,2,2,1,2,ScUS2,10.660531
mp-36088,La5SmS8,2,6,1,8,La5SmS8,8.70383
mp-3627,Eu(Mo3S4)2,2,4,1,4,EuMo3S4,6.568392
mp-3669,Mn(NbS2)4,2,2,1,2,MnNbS2,11.721114
mp-37070,Pr2SmS4,2,3,1,4,Pr2SmS4,8.615589
mp-37199,Ce(NdS2)2,2,2,1,2,CeNdS2,8.57957
mp-37233,Nd2CdS4,2,3,1,4,CdNd2S4,8.868011
mp-37449,Nd5AgS8,2,6,1,8,AgNd5S8,8.636761
mp-37923,Sm5AgS8,2,6,1,8,AgSm5S8,8.537224
mp-38901,Nd2SmS4,2,3,1,4,Nd2SmS4,8.551928
mp-38931,Tb2SmS4,2,3,1,4,SmTb2S4,8.352693
mp-3925,Co2CuS4,2,3,1,4,Co2CuS4,9.47506
mp-3926,NbAg7S6,2,8,1,6,Ag7NbS6,-10.969586
mp-3930,Sc2MnS4,2,3,1,4,MnSc2S4,10.61295
mp-3951,Ti2CuS4,2,3,1,4,CuTi2S4,10.014853
mp-399,Te2Pt,1,1,1,2,PtTe2,5.345008
mp-4182,CrAgS2,2,2,1,2,AgCrS2,20.419008
mp-4194,Zn(CrS2)2,2,2,1,2,CrZnS2,10.070586
mp-4841,LaCuS2,2,2,1,2,CuLaS2,-6.880167
mp-504587,Fe9Cu9S16,2,18,1,16,Cu9Fe9S16,5.217818
mp-505522,Fe(NiS2)2,2,2,1,2,FeNiS2,9.382003
mp-5058,FeAgS2,2,2,1,2,AgFeS2,10.283192
mp-5081,SmCuS2,2,2,1,2,CuSmS2,-6.777481
mp-510471,GdCuS2,2,2,1,2,CuGdS2,-6.708452
mp-510490,GdScS3,2,2,1,3,GdScS3,9.553256
mp-5178,V2CuS4,2,3,1,4,CuV2S4,9.872476
mp-5222,ReTeS,1,1,2,2,ReSTe,10.193429
mp-5306,Nb4CrS8,2,5,1,8,CrNb4S8,12.084944
mp-530870,Tb6CdS10,2,7,1,10,CdTb6S10,29.641747
mp-530925,Fe6Ni9S20,2,15,1,20,Fe6Ni9S20,27.003885
mp-531696,Ti9ZnS16,2,10,1,16,Ti9ZnS16,-9.890664
mp-532220,Dy(CrS2)3,2,2,1,2,CrDyS2,-12.656194
mp-5335,U2PdS4,2,3,1,4,PdU2S4,13.19444
mp-540724,Fe4Cu2S7,2,6,1,7,Cu2Fe4S7,11.707609
mp-542188,Cr(MoS2)2,2,2,1,2,CrMoS2,-11.844275
mp-542189,Fe(MoS2)2,2,2,1,2,FeMoS2,-11.70261
mp-542627,Fe2AgS3,2,3,1,3,AgFe2S3,12.839699
mp-554120,DyCuS2,2,2,1,2,CuDyS2,13.47609
mp-555044,DyCuS2,2,2,1,2,CuDyS2,13.477916
mp-555345,CrCuS2,2,2,1,2,CrCuS2,19.263567
mp-555370,V(MoS2)2,2,2,1,2,MoVS2,-5.505905
mp-555795,Y2CrS4,2,3,1,4,CrY2S4,12.58706
mp-557373,Cu2WS4,2,3,1,4,Cu2WS4,10.615969
mp-559388,U8FeS17,2,9,1,17,FeU8S17,-10.039921
mp-559918,Ti2CuS4,2,3,1,4,CuTi2S4,34.821743
mp-560676,CrAgS2,2,2,1,2,AgCrS2,27.14499
mp-561242,TaAgS3,2,2,1,3,AgTaS3,7.785585
mp-567584,Hf2Te,1,2,1,1,Hf2Te,-10.128365
mp-5725,CuAg3S2,2,4,1,2,Ag3CuS2,11.908757
mp-572604,Eu2Re6S11,2,8,1,11,Eu2Re6S11,31.736069
mp-5821,TaAgS3,2,2,1,3,AgTaS3,7.785995
mp-5862,CrCuS2,2,2,1,2,CrCuS2,18.352541
mp-615821,Ta9(FeS3)2,2,10,1,3,FeTa9S3,3.318322
mp-619571,ScU8S17,2,9,1,17,ScU8S17,-10.303283
mp-620369,TaAg7S6,2,8,1,6,Ag7TaS6,-10.665079
mp-640073,FeCuS2,2,2,1,2,CuFeS2,5.213413
mp-644883,CuAg3S2,2,4,1,2,Ag3CuS2,11.772818
mp-669370,Ta5AuS,2,6,1,1,AuTa5S,12.620321
mp-672708,Fe(CuS)2,2,2,1,1,CuFeS,10.814955
mp-672709,Fe(CuS)2,2,2,1,1,CuFeS,10.80418
mp-673875,Fe2RhS4,2,3,1,4,Fe2RhS4,9.598095
mp-674355,Co(NiS2)2,2,2,1,2,CoNiS2,9.370425
mp-674858,Co(NiS2)2,2,2,1,2,CoNiS2,5.838047
mp-675037,Sm2EuS4,2,3,1,4,EuSm2S4,8.570744
mp-675067,Sm2ZnS4,2,3,1,4,Sm2ZnS4,8.882194
mp-675143,Eu(GdS2)2,2,2,1,2,EuGdS2,8.449898
mp-675307,Fe5Ni7S16,2,12,1,16,Fe5Ni7S16,21.665276
mp-675336,Pr10US16,2,11,1,16,Pr10US16,8.583545
mp-675380,Nb15IrS32,2,16,1,32,IrNb15S32,12.314901
mp-675643,Ce5AgS8,2,6,1,8,AgCe5S8,8.610354
mp-675691,Ni2RhS4,2,3,1,4,Ni2RhS4,9.594452
mp-675741,La10US16,2,11,1,16,La10US16,8.645364
mp-675781,Cu3(Mo3S4)4,2,6,1,4,Cu3Mo3S4,9.535448
mp-675920,Ti6AgS12,2,7,1,12,AgTi6S12,8.039373
mp-676058,V3NiS6,2,4,1,6,NiV3S6,17.190159
mp-676156,Gd5AgS8,2,6,1,8,AgGd5S8,8.385135
mp-676291,Ta6Te3S,1,6,2,4,Ta6STe3,13.503757
mp-676402,Ti8Cu3S16,2,11,1,16,Cu3Ti8S16,-5.905537
mp-676751,Cr5AgS8,2,6,1,8,AgCr5S8,-12.472394
mp-676880,Ce10US16,2,11,1,16,Ce10US16,8.466998
mp-677075,Gd2CdS4,2,3,1,4,CdGd2S4,8.660551
mp-677272,La2EuS4,2,3,1,4,EuLa2S4,8.713187
mp-677597,Ta4AgS8,2,5,1,8,AgTa4S8,13.491855
mp-680259,TaTe4,1,1,1,4,TaTe4,20.917904
mp-685224,Sc22Fe7S40,2,29,1,40,Fe7Sc22S40,29.844342
mp-685265,Nd6MnS10,2,7,1,10,MnNd6S10,30.061027
mp-685513,Pr6MnS10,2,7,1,10,MnPr6S10,30.32958
mp-685874,V(MoS2)2,2,2,1,2,MoVS2,15.424082
mp-690962,Nb24(CuS8)5,2,25,1,8,CuNb24S8,-29.003385
mp-6980,ScCuS2,2,2,1,2,CuScS2,6.014429
mp-7113,CrAuS2,2,2,1,2,AuCrS2,21.437267
mp-7276,ScUS3,2,2,1,3,ScUS3,9.141701
mp-753211,FeCuS2,2,2,1,2,CuFeS2,6.253141
mp-760980,FeCu5S4,2,6,1,4,Cu5FeS4,37.807097
mp-7923,Co(MoS2)2,2,2,1,2,CoMoS2,-11.241813
mp-8435,Ta2PdS6,2,3,1,6,PdTa2S6,-9.100542
mp-8911,CuAgS,2,2,1,1,AgCuS,8.454771
mp-8976,Cu2WS4,2,3,1,4,Cu2WS4,5.698991
mp-9483,Zr9V4S,2,13,1,1,V4Zr9S,8.538396
mp-9635,Ag2HgS2,2,3,1,2,Ag2HgS2,-6.40178
mp-971712,ZnCdS2,2,2,1,2,CdZnS2,5.747001
mp-978640,Sm(Mo3S4)2,2,4,1,4,Mo3SmS4,11.483068
mp-981379,Zn3CdS4,2,4,1,4,CdZn3S4,5.572217
mp-985298,Ce2HfS5,2,3,1,5,Ce2HfS5,11.364551
mp-985558,Ce2US5,2,3,1,5,Ce2US5,11.78506
mvc-11131,Zn(CoS2)4,2,2,1,2,CoZnS2,16.103149