material_id,formula,space_group,nsites,count_unique_TM,count_TM,count_unique_C,count_C,consensus_formula,ab_angle(degree),caxis
mp-685296,Sm5(Mo3Se4)12,P-1,178,2,8,1,4,Mo3Sm5Se4,88.56073039464812,57.125031
mp-685414,Tb11CuSe16,P2_12_12,56,2,12,1,16,CuTb11Se16,90.0,17.401534
mp-685447,Pr5(Mo3Se4)12,P-1,178,2,8,1,4,Mo3Pr5Se4,88.25790760599257,57.219644
mp-685618,FeAgTe2,Pmn2_1,16,2,2,1,2,AgFeTe2,90.0,11.209819
mp-685942,Ti2(Mo3Se4)5,P-1,74,2,5,1,4,Mo3Ti2Se4,92.94108641665052,14.526482
mp-685977,Gd5AgSe8,I-4,14,2,6,1,8,AgGd5Se8,90.0,8.855443
mp-686056,Fe(Mo3Se4)2,P-1,30,2,4,1,4,FeMo3Se4,95.83071398810782,9.720576
mp-686717,Fe2NiSe4,P1,7,2,3,1,4,Fe2NiSe4,90.62448805781348,5.542187
mp-695001,V6Cu5Te12,P-1,46,2,11,1,12,Cu5V6Te12,86.27387103412335,15.363658
mp-7861,CrCuSe2,R3m,4,2,2,1,2,CrCuSe2,120.00001219939176,20.382469
mp-862829,PaTe2Au,Fm-3m,4,2,2,1,2,AuPaTe2,90.0,7.424755
mp-864791,PaAgTe2,Fm-3m,4,2,2,1,2,AgPaTe2,90.0,7.445186
mp-864797,NdCrSe3,Pnma,20,2,2,1,3,CrNdSe3,90.0,13.730272
mp-867311,AcAgTe2,Fm-3m,4,2,2,1,2,AcAgTe2,90.0,7.876219
mp-8677,ZrTiTe4,P2/m,6,2,2,1,4,TiZrTe4,90.0,-6.94283
mp-8848,TaFeTe3,P2_1/m,10,2,2,1,3,FeTaTe3,90.0,-9.701471
mp-8998,TaNiTe5,Cmcm,14,2,2,1,5,NiTaTe5,90.0,15.25498
mp-8999,NbNiTe5,Cmcm,14,2,2,1,5,NbNiTe5,90.0,15.270289
mp-9295,TaCu3Te4,P-43m,8,2,4,1,4,Cu3TaTe4,90.0,5.987645
mp-9381,Zr6FeTe2,P-62m,9,2,7,1,2,FeZr6Te2,120.00000275409353,3.603935
mp-9391,TaNi2Te3,P2_1/m,12,2,3,1,3,Ni2TaTe3,90.0,-9.878611
mp-945184,YCuTe2,P2/m,8,2,2,1,2,CuYTe2,90.0,-7.502684
mp-945779,DyCuTe2,P2/m,8,2,2,1,2,CuDyTe2,90.0,-7.481587
mp-961646,TiTeOs,F-43m,3,2,2,1,1,OsTiTe,90.0,6.170141
mp-961649,ZrFeTe,F-43m,3,2,2,1,1,FeZrTe,90.0,6.122917
mp-961656,VFeTe,F-43m,3,2,2,1,1,FeVTe,90.0,5.828493
mp-961660,TiFeSe,F-43m,3,2,2,1,1,FeTiSe,90.0,5.619321
mp-961673,TiFeTe,F-43m,3,2,2,1,1,FeTiTe,90.0,5.88341
mp-961678,ScCoTe,F-43m,3,2,2,1,1,CoScTe,90.0,6.07882
mp-961695,LaCoTe,F-43m,3,2,2,1,1,CoLaTe,90.0,6.583154
mp-971837,ZnCdTe2,I-42d,8,2,2,1,2,CdZnTe2,90.0,12.714482
mp-976804,NiAgTe2,R3m,4,2,2,1,2,AgNiTe2,120.00001052988753,21.118664
mp-979271,TbAgSe2,I4_1md,8,2,2,1,2,AgTbSe2,90.0,12.049433
mp-984629,Cr3CdTe4,P-43m,8,2,4,1,4,CdCr3Te4,90.0,6.355502
mp-985289,Nb3CrSe6,P6_322,20,2,4,1,6,CrNb3Se6,120.00000990412374,12.721227
mp-991652,VCu3Te4,P-43m,8,2,4,1,4,Cu3VTe4,90.0,5.916364
mp-991676,NbCu3Te4,P-43m,8,2,4,1,4,Cu3NbTe4,90.0,5.982573
mp-1025378,V2FeTe4,C2/m,7,2,3,1,4,FeV2Te4,90.0,-5.941747
mp-1215403,ZnHgTe2,P-4m2,4,2,2,1,2,HgZnTe2,90.0,6.425131
mp-1217261,ThUTe2,P4/mmm,4,2,2,1,2,ThUTe2,90.0,6.250437
mp-1219038,SmUTe6,Amm2,8,2,2,1,6,SmUTe6,90.0,4.393234
mp-1229219,Ag3Te32Au13,C2,48,2,16,1,32,Ag3Au13Te32,90.0,-9.089134
mp-29068,Hf5FeTe3,Pnma,36,2,6,1,3,FeHf5Te3,90.0,18.077083
mp-3551,TbAgTe2,P-42_1m,8,2,2,1,2,AgTbTe2,90.0,4.756905
mp-642293,Y6Te2Pd,Pnma,36,2,7,1,2,PdY6Te2,90.0,22.000544