material_id,formula,space_group,nsites,count_unique_TM,count_TM,count_unique_C,count_C,consensus_formula,ab_angle(degree),caxis
mp-1025685,Te4Mo3Se2,P-6m2,9,1,3,2,6,Mo3Se2Te4,120.0000014512015,31.987182
mp-1025689,Mo(WS3)2,P-6m2,9,2,2,1,3,MoWS3,119.99999267244145,29.114878
mp-1025690,Te2W3S4,P-6m2,9,1,3,2,6,W3S4Te2,119.99999028809734,30.55128
mp-1025733,Te4Mo3Se2,P3m1,9,1,3,2,6,Mo3Se2Te4,119.99999737788626,32.03364
mp-1025819,Mo3(Se2S)2,P-6m2,9,1,3,2,3,Mo3SSe2,119.99998621304145,30.144479
mp-1025906,Mo3(Se2S)2,P3m1,9,1,3,2,3,Mo3SSe2,120.0000154298367,30.164817
mp-1025986,Te2Mo3S4,P-6m2,9,1,3,2,6,Mo3S4Te2,120.00000714655204,30.477833
mp-1026348,Te2W3Se4,P3m1,9,1,3,2,6,W3Se4Te2,120.00001569097891,31.474379
mp-1026350,Te4W3Se2,P3m1,9,1,3,2,6,W3Se2Te4,119.99998393098336,32.125321
mp-1026356,Te4W3Se2,P-6m2,9,1,3,2,6,W3Se2Te4,120.0000032851137,32.083216
mp-1026362,Te4W3S2,P-6m2,9,1,3,2,6,W3S2Te4,119.99999273728203,31.69822
mp-1027273,MoW3S8,P3m1,12,2,4,1,8,MoW3S8,120.00000143853512,35.851759
mp-1027492,MoSeS,P-3m1,12,1,1,2,2,MoSSe,120.0000106141837,36.845198
mp-1027608,Mo2SeS3,P3m1,12,1,2,2,4,Mo2S3Se,119.9999989041027,36.37605
mp-1027642,Te3Mo2S,P3m1,12,1,2,2,4,Mo2STe3,120.00001889556437,39.225807
mp-1027761,TeMo2S3,P3m1,12,1,2,2,4,Mo2S3Te,120.00001383968798,37.336164
mp-1028414,MoWSe4,P3m1,12,2,2,1,4,MoWSe4,120.00002011425127,37.849428
mp-1028456,TeWSe,P3m1,12,1,1,2,2,WSeTe,120.00001181947476,39.192875
mp-1028488,WSeS,P3m1,12,1,1,2,2,WSSe,120.00002054696759,36.93006
mp-1028526,TeWS,P3m1,12,1,1,2,2,WSTe,120.00000810531294,39.389245
mp-1028558,W2SeS3,P3m1,12,1,2,2,4,W2S3Se,90.0,-38.310085
mp-1028589,TeWSe,P-3m1,12,1,1,2,2,WSeTe,120.00000431952631,39.186898
mp-1028598,Te3W2Se,P3m1,12,1,2,2,4,W2SeTe3,119.99999649616846,39.674341
mp-1028663,WSeS,P-3m1,12,1,1,2,2,WSSe,119.9999954902921,36.894026
mp-1028686,W2Se3S,P3m1,12,1,2,2,4,W2SSe3,120.00001547058773,37.447428
mp-1028731,TeW2Se3,P3m1,12,1,2,2,4,W2Se3Te,119.99999323198341,38.560445
mp-1028762,TeW2Se3,P3m1,12,1,2,2,4,W2Se3Te,120.00000922562806,38.550621
mp-1028764,WSeS,P3m1,12,1,1,2,2,WSSe,119.99998365682293,36.852445
mp-1028772,WSeS,P-3m1,12,1,1,2,2,WSSe,119.99998056848457,36.90233
mp-1028869,Te3W2S,P3m1,12,1,2,2,4,W2STe3,120.00001148783949,39.442561
mp-1030119,MoWS4,P-3m1,12,2,2,1,4,MoWS4,120.00000256180425,35.792309
mp-1030274,Te3Mo2S,P3m1,12,1,2,2,4,Mo2STe3,119.99999156738035,39.553313
mp-1030447,Te3Mo2Se,P3m1,12,1,2,2,4,Mo2SeTe3,119.99999552034701,39.562143
mp-1030709,TeMoSe,P-3m1,12,1,1,2,2,MoSeTe,120.00000001488779,39.074716
mp-1030721,Te3Mo2Se,P3m1,12,1,2,2,4,Mo2SeTe3,119.99999680333121,39.625013
mp-10495,NdCuS2,P2_1/c,16,2,2,1,2,CuNdS2,90.0,-6.8295
mp-1065204,CrAgS2,R3m,4,2,2,1,2,AgCrS2,119.9999944900835,21.589701
mp-1077144,CdHgS4,I-4,6,2,2,1,4,CdHgS4,90.0,3.01014
mp-1077811,CuAgS,Cmc2_1,6,2,2,1,1,AgCuS,90.0,8.207623
mp-1077938,Pr2CrSe4,C2/m,7,2,3,1,4,CrPr2Se4,90.0,-6.427157
mp-1077996,Cr(RhSe2)2,C2/m,7,2,2,1,2,CrRhSe2,90.0,-5.713044
mp-1078058,Ti(CrS2)2,C2/m,7,2,2,1,2,CrTiS2,90.0,-5.380359
mp-1078162,Fe(RhSe2)2,C2/m,7,2,2,1,2,FeRhSe2,90.0,-5.580727
mp-1078200,V2CoSe4,C2/m,7,2,3,1,4,CoV2Se4,90.0,-5.489846
mp-1078247,Cr2FeS4,C2/m,7,2,3,1,4,Cr2FeS4,90.0,-5.143296
mp-1078249,Co(RhSe2)2,C2/m,7,2,2,1,2,CoRhSe2,90.0,-5.538965
mp-1078597,ZnCd3Se4,P-43m,8,2,4,1,4,Cd3ZnSe4,90.0,6.090179
mp-1079034,Zn3CdSe4,P-43m,8,2,4,1,4,CdZn3Se4,90.0,5.85995
mp-1079562,UFeSe3,Cmcm,10,2,2,1,3,FeUSe3,90.0,9.187065
mp-1080466,Nb2PdS6,C2/m,9,2,3,1,6,Nb2PdS6,90.0,-9.07273
mp-1096795,YAgS2,R3m,4,2,2,1,2,AgYS2,120.00000327693087,20.995638
mp-1096867,Cd(CuSe)2,P-3m1,5,2,2,1,1,CdCuSe,120.00000329430404,6.949952
mp-1096959,FeAgSe2,I-42d,8,2,2,1,2,AgFeSe2,90.0,10.814873
mp-1096969,FeAgS2,R3m,4,2,2,1,2,AgFeS2,119.99999695635397,20.466655
mp-1096975,FeCuS2,R3m,4,2,2,1,2,CuFeS2,119.99999114576691,17.770745
mp-1100873,YAgSe2,P1,8,2,2,1,2,AgYSe2,89.96446155475866,6.08806
mp-1103734,Cr(Mo3Se4)2,R-3,15,2,4,1,4,CrMo3Se4,91.6467149021647,6.74647
mp-1103853,Tb(Mo3S4)2,R-3,15,2,4,1,4,Mo3TbS4,119.9999957965997,11.392399
mp-1103960,Pr(Mo3Se4)2,R-3,15,2,4,1,4,Mo3PrSe4,120.00000758931218,12.066047
mp-1103966,Cd(Mo3Se4)2,R-3,15,2,4,1,4,CdMo3Se4,119.99999562426538,11.515128
mp-1103998,Fe(Mo3S4)2,R-3,15,2,4,1,4,FeMo3S4,119.99999812378864,10.710485
mp-1104295,Nd(Mo3Se4)2,R-3,15,2,4,1,4,Mo3NdSe4,120.00000106039461,12.015617
mp-1104366,Ti4NiS8,C2/m,13,2,5,1,8,NiTi4S8,90.0,-5.896542
mp-1104431,Sm(Mo3Se4)2,R-3,15,2,4,1,4,Mo3SmSe4,120.00000436439323,11.981774
mp-1104894,Cu(Mo3Se4)2,R-3,15,2,4,1,4,CuMo3Se4,119.99999980687711,11.045516
mp-1105059,Mn(Mo3Se4)2,R-3,15,2,4,1,4,MnMo3Se4,92.55013274519979,6.689931
mp-1105074,V(Mo3Se4)2,R-3,15,2,4,1,4,Mo3VSe4,89.17920855485315,6.691612
mp-1105840,Nb3VSe6,P6_322,20,2,4,1,6,Nb3VSe6,119.99999334243469,12.745257
mp-1106349,SmPd3S4,Pm-3n,16,2,4,1,4,Pd3SmS4,90.0,6.7481
mp-11193,VAuS2,P6_3/mmc,8,2,2,1,2,AuVS2,120.0000102451773,15.188637
mp-1173144,Ta2OsSe6,R32,18,2,3,1,6,OsTa2Se6,120.00000051438293,37.562298
mp-1173369,Pr2EuSe4,I-42d,14,2,3,1,4,EuPr2Se4,90.0,9.059929
mp-1173506,Nb9IrS20,P-1,30,2,10,1,20,IrNb9S20,68.97887112144024,10.807609
mp-1173540,Sm31(CuSe16)3,P1,82,2,32,1,16,CuSm31Se16,108.73006468703548,37.345896
mp-1173568,Sm6MnS10,P1,68,2,7,1,10,MnSm6S10,108.87375112098282,29.871
mp-11791,CeCuSe2,P2_1/c,16,2,2,1,2,CeCuSe2,90.0,-7.192272
mp-11792,PrCuSe2,P2_1/c,16,2,2,1,2,CuPrSe2,90.0,-7.199777
mp-1181743,CoHgS4,I-4,6,2,2,1,4,CoHgS4,90.0,5.109359
mp-1186227,Nb3CoSe6,P6_322,20,2,4,1,6,CoNb3Se6,119.99999703464589,12.346137
mp-1187280,Ta3CrSe6,P6_322,20,2,4,1,6,CrTa3Se6,120.00000169974592,12.900586
mp-1188226,UCoSe3,Pnma,20,2,2,1,3,CoUSe3,90.0,8.92309
mp-1188365,PrPd3S4,Pm-3n,16,2,4,1,4,Pd3PrS4,90.0,6.784672
mp-1188372,UVSe3,Pnma,20,2,2,1,3,UVSe3,90.0,9.291294
mp-1188428,La3MnS5,P6_3/mcm,18,2,4,1,5,La3MnS5,120.00000173355826,6.94216
mp-1188631,Ti(NbSe2)3,P6_322,20,2,2,1,2,NbTiSe2,119.99999306232715,13.125803
mp-1188840,SmScS3,Pnma,20,2,2,1,3,ScSmS3,90.0,9.572118
mp-1189011,Ta3CrS6,P6_322,20,2,4,1,6,CrTa3S6,119.99999285949787,12.223577
mp-1189225,Nb3RhSe6,P6_322,20,2,4,1,6,Nb3RhSe6,120.00000321751055,12.717358
mp-1189616,Ta3FeS6,P6_322,20,2,4,1,6,FeTa3S6,119.99999851563896,11.700181
mp-1189627,Th2FeSe5,C2/c,16,2,3,1,5,FeTh2Se5,90.0,-7.516072
mp-1189832,Eu5(ZrS4)3,P-62m,20,2,6,1,4,Eu5ZrS4,119.99999868010252,3.913155
mp-1190059,EuHfS3,Pnma,20,2,2,1,3,EuHfS3,90.0,9.718063
mp-1191230,Pr4FeS7,P2_1,24,2,5,1,7,FePr4S7,90.0,-8.622841
mp-1191552,Fe2AgS3,P2_1/c,24,2,3,1,3,AgFe2S3,90.0,-10.895384
mp-1191906,Nd4FeS7,P2_1,24,2,5,1,7,FeNd4S7,90.0,-8.524
mp-1192020,Eu2CuS3,Pnma,24,2,3,1,3,CuEu2S3,90.0,12.623285
mp-1192341,Pr4MnS7,P6_3,24,2,5,1,7,MnPr4S7,119.99999472373483,7.100479
mp-1192454,Ti(NbS2)4,P6_3/mmc,26,2,2,1,2,NbTiS2,120.00000829837323,12.393366
mp-1192482,Nd4MnS7,P6_3,24,2,5,1,7,MnNd4S7,120.0000039384005,6.9954
mp-1192540,Nb4NiS8,P6_3/mmc,26,2,5,1,8,Nb4NiS8,119.99999688061988,11.950121
mp-1192655,U8CrSe17,C2/m,26,2,9,1,17,CrU8Se17,90.0,-10.585597
mp-1192861,U8NiSe17,C2/m,26,2,9,1,17,NiU8Se17,90.0,-10.622144
mp-1192888,U8NiS17,C2/m,26,2,9,1,17,NiU8S17,90.0,-10.02904
mp-1192911,Sm4FeS7,P6_3,24,2,5,1,7,FeSm4S7,90.0,-8.431717
mp-1193039,Ce4CrS7,P2_1,24,2,5,1,7,Ce4CrS7,90.0,-8.589511
mp-1193368,Nb4CoSe8,P6_3/mmc,26,2,5,1,8,CoNb4Se8,120.0000077325904,12.416572
mp-1193575,Mn(NbSe2)4,P6_3/mmc,26,2,2,1,2,MnNbSe2,119.99999233534162,13.119283
mp-1193686,Nb4FeS8,P6_3/mmc,26,2,5,1,8,FeNb4S8,119.99999922581596,11.679464
mp-1193767,Hf9W4S,P6_3/mmc,28,2,13,1,1,Hf9W4S,120.0000009035367,8.590053
mp-1193958,Nb2FeS4,Pnma,28,2,3,1,4,FeNb2S4,90.0,13.063399
mp-1193960,Eu(DyS2)2,Pnma,28,2,2,1,2,DyEuS2,90.0,14.292085
mp-1194475,La2U2Se9,Pmma,26,2,4,1,9,La2U2Se9,90.0,10.826196
mp-1194651,Ce2ZrSe5,Pnma,32,2,3,1,5,Ce2ZrSe5,90.0,12.035608
mp-1195609,Pr2ZrSe5,Pnma,32,2,3,1,5,Pr2ZrSe5,90.0,12.176191
mp-1195982,La2ThS5,Pnma,32,2,3,1,5,La2ThS5,90.0,12.165569
mp-1196148,Sm2ZrS5,Pnma,32,2,3,1,5,Sm2ZrS5,90.0,11.720902
mp-1197243,U2TiS5,Pnma,32,2,3,1,5,TiU2S5,90.0,11.138685
mp-1197252,Tb2ZrS5,Pnma,32,2,3,1,5,Tb2ZrS5,90.0,11.635189
mp-1197354,ZrU2S5,Pnma,32,2,3,1,5,U2ZrS5,90.0,11.449489
mp-1197947,La2HfS5,Pnma,32,2,3,1,5,HfLa2S5,90.0,11.735387
mp-1198013,Gd2USe5,Pnma,32,2,3,1,5,Gd2USe5,90.0,12.059511
mp-1198018,Cd2Mo15Se19,R-3c,72,2,17,1,19,Cd2Mo15Se19,120.00000531930046,58.131674
mp-1198078,Sm2ZrSe5,Pnma,32,2,3,1,5,Sm2ZrSe5,90.0,12.183112
mp-1199006,Tb2HfS5,Pnma,32,2,3,1,5,HfTb2S5,90.0,11.56627
mp-1200036,Gd2ZrS5,Pnma,32,2,3,1,5,Gd2ZrS5,90.0,11.615097
mp-1200271,AgPd3Se,Pa-3,40,2,4,1,1,AgPd3Se,90.0,8.775577
mp-1200409,La2ZrSe5,Pnma,32,2,3,1,5,La2ZrSe5,90.0,12.320404
mp-1200551,Nd2US5,Pnma,32,2,3,1,5,Nd2US5,90.0,11.954694
mp-1201621,La2USe5,Pnma,32,2,3,1,5,La2USe5,90.0,12.504483
mp-1201912,Ce2ThS5,Pnma,32,2,3,1,5,Ce2ThS5,90.0,12.071047
mp-1202520,Sm2HfS5,Pnma,32,2,3,1,5,HfSm2S5,90.0,11.641847
mp-1202782,Hg3Pd8Se9,Pmmn,40,2,11,1,9,Hg3Pd8Se9,90.0,17.094488
mp-1204251,Ta8CoSe8,Pnma,68,2,9,1,8,CoTa8Se8,90.0,22.742425
mp-1205094,SmAgS2,P2_1,32,2,2,1,2,AgSmS2,90.0,-13.123402
mp-1207420,Zr9Mo4S,P6_3/mmc,28,2,13,1,1,Mo4Zr9S,119.9999965265362,8.654439
mp-1207598,YPd3S4,Pm-3n,16,2,4,1,4,Pd3YS4,90.0,6.715105
mp-1207671,YAgS2,P2_1,32,2,2,1,2,AgYS2,90.0,-12.853907
mp-1207827,Y3CrS6,Pnnm,40,2,4,1,6,CrY3S6,90.0,16.013303
mp-1208121,UTeSe,Pnma,12,1,1,2,2,USeTe,90.0,13.053226
mp-1208259,Ti3CoS6,P6_322,20,2,4,1,6,CoTi3S6,120.0000078032159,11.437886
mp-1208370,TbAgS2,P2_1,32,2,2,1,2,AgTbS2,90.0,-12.652019
mp-1208432,Ta3MnS6,P6_322,20,2,4,1,6,MnTa3S6,120.00000687407801,11.942263
mp-1208493,Ta20Te5S3,C2/c,56,1,20,2,8,Ta20S3Te5,90.0,-10.007973
mp-1208516,Tb3CrS6,Pnnm,40,2,4,1,6,CrTb3S6,90.0,16.03021
mp-1209946,NbCrS5,P2_1/m,14,2,2,1,5,CrNbS5,90.0,-9.021286
mp-1209948,NbFeSe5,P2_1/m,14,2,2,1,5,FeNbSe5,90.0,-9.431224
mp-1210442,Nd4CrS7,P6_3,24,2,5,1,7,CrNd4S7,120.0000062066589,6.740631
mp-1211380,LaVS3,Pnma,20,2,2,1,3,LaVS3,90.0,13.233138
mp-1212479,Hf9Mo4Se,P6_3/mmc,28,2,13,1,1,Hf9Mo4Se,119.99999674249926,8.631224
mp-1212952,Dy3CrS6,Pnnm,40,2,4,1,6,CrDy3S6,90.0,15.97521
mp-1213664,Hg(MoS2)6,P-1,19,2,2,1,2,HgMoS2,115.54669722517801,-18.608778
mp-1215370,Zr4CuS8,F-43m,13,2,5,1,8,CuZr4S8,90.0,10.499932
mp-1215475,ZnCdS2,P3m1,4,2,2,1,2,CdZnS2,119.99999397801099,6.630601
mp-1215502,Zn3FeS4,R3m,8,2,4,1,4,FeZn3S4,119.99998587625423,37.702765
mp-1215532,Zn4FeSe5,R3m,10,2,5,1,5,FeZn4Se5,120.0000041023839,49.62778
mp-1215665,Zr3CoSe6,R-3,10,2,4,1,6,CoZr3Se6,119.9999939469873,18.296107
mp-1215700,YZrS2,R-3m,4,2,2,1,2,YZrS2,120.00000919295863,18.28752
mp-1215915,YScS2,R-3m,4,2,2,1,2,ScYS2,119.99999025521143,18.790536
mp-1216001,YAgSe2,P4/mmm,4,2,2,1,2,AgYSe2,90.0,5.729677
mp-1216060,Y2USe3,P-3m1,6,2,3,1,3,UY2Se3,120.00000449341684,10.272669
mp-1216082,Y2MnS4,Cmc2_1,14,2,3,1,4,MnY2S4,90.0,12.905283
mp-1216113,Y4MnS7,Cm,12,2,5,1,7,MnY4S7,90.0,-11.09111
mp-1216175,Y4FeS7,Cm,12,2,5,1,7,FeY4S7,90.0,-11.021194
mp-1216184,Y(CuS)3,R-3,14,2,2,1,1,CuYS,120.00000477514828,19.0928
mp-1216368,VCrSe2,P-3m1,4,2,2,1,2,CrVSe2,119.9999899831738,5.66539
mp-1216478,V7(CuS6)2,P-1,21,2,8,1,6,CuV7S6,106.5485092148664,7.598343
mp-1216499,V3FeS6,R-3,10,2,4,1,6,FeV3S6,119.99999184989477,16.6877
mp-1216659,V2FeSe4,Cm,7,2,3,1,4,FeV2Se4,90.0,-5.574785
mp-1216719,U2TeSe,R-3m,4,1,2,2,2,U2SeTe,120.00000320081872,19.87006
mp-1216724,V(FeS2)2,Cm,7,2,2,1,2,FeVS2,90.0,-5.178454
mp-1216761,TiVS2,Pmc2_1,8,2,2,1,2,TiVS2,90.0,5.974421
mp-1216764,TiVSe4,P2/m,6,2,2,1,4,TiVSe4,90.0,-6.434845
mp-1216921,UTeSe,Pnma,12,1,1,2,2,USeTe,90.0,9.38496
mp-1216936,U4TeSe7,Pm,12,1,4,2,8,U4Se7Te,90.0,-9.156242
mp-1217039,V4(CrS2)5,P-1,19,2,5,1,2,CrV4S2,89.93393461292875,7.303667
mp-1217118,Ti3(TeSe)2,C2/m,7,1,3,2,2,Ti3SeTe,90.0,-6.065534
mp-1217175,Ti5(CuS5)2,P-1,17,2,6,1,5,CuTi5S5,90.1971503270587,7.373271
mp-1217185,Ti3CoS6,R-3,10,2,4,1,6,CoTi3S6,119.99999875260912,16.883026
mp-1217215,Ti4MnS8,P-3m1,13,2,5,1,8,MnTi4S8,120.00000817357837,23.682383
mp-1217265,ThUS2,P4/mmm,4,2,2,1,2,ThUS2,90.0,5.615632
mp-1217293,TeMoSe,P-3m1,6,1,1,2,2,MoSeTe,120.00000782622632,14.244811
mp-1217311,ThUS2,R-3m,4,2,2,1,2,ThUS2,120.00000645786417,20.12901
mp-1217319,TeW2Se3,P3m1,6,1,2,2,4,W2Se3Te,119.99997838388245,14.758657
mp-1217350,Ti(FeSe2)2,Cm,7,2,2,1,2,FeTiSe2,90.0,-5.505642
mp-1217604,TbEu4S5,I4/mmm,10,2,5,1,5,Eu4TbS5,90.0,28.909425
mp-1217684,Tb2TeS2,Immm,5,1,2,2,3,Tb2S2Te,90.0,13.608461
mp-1217751,Tb3CuSe6,P2_1/c,40,2,4,1,6,CuTb3Se6,90.0,-17.110338
mp-1217829,TaTiSe4,P2/m,6,2,2,1,4,TaTiSe4,90.0,-6.500934
mp-1217841,Tb(CuSe)3,R-3,14,2,2,1,1,CuTbSe,120.00000268366328,19.796952
mp-1217846,Ta20Pd9S50,C2/m,79,2,29,1,50,Pd9Ta20S50,90.0,-14.938621
mp-1217890,TaSeS,P3m1,3,1,1,2,2,TaSSe,119.99999553552088,6.39995
mp-1217917,TaMoS4,Cm,6,2,2,1,4,MoTaS4,90.0,-5.627733
mp-1217959,TaCuS2,P6_3mc,8,2,2,1,2,CuTaS2,120.00001627308525,13.3313
mp-1217968,Ta4SeS,P4mm,6,1,4,2,2,Ta4SSe,90.0,9.808843
mp-1217994,Ta2ZnS4,P-3m1,7,2,3,1,4,Ta2ZnS4,119.99999697321309,12.483895
mp-1218020,Ta2FeS4,P-3m1,7,2,3,1,4,FeTa2S4,120.0000002001799,11.916915
mp-1218028,Ta4MoS10,Cm,15,2,5,1,10,MoTa4S10,90.0,-6.565887
mp-1218033,Ta3MoS8,Cm,12,2,4,1,8,MoTa3S8,90.0,-5.731424
mp-1218047,Ta4MoSe10,Cm,15,2,5,1,10,MoTa4Se10,90.0,-10.477249
mp-1218077,Ta2NiS4,P-3m1,7,2,3,1,4,NiTa2S4,120.0000071911389,12.339791
mp-1218083,Ta6TeSe2,C2/m,18,1,6,2,3,Ta6Se2Te,90.0,-10.973713
mp-1218136,Ta4NiS8,P-3m1,13,2,5,1,8,NiTa4S8,119.99999647749586,24.425977
mp-1218975,SmYS2,R-3m,4,2,2,1,2,SmYS2,119.99999169329304,19.731501
mp-1218990,SmY4Se5,R-3m,10,2,5,1,5,SmY4Se5,119.9999975504284,49.951398
mp-1219007,SmGdS2,R-3m,4,2,2,1,2,GdSmS2,120.00000400217672,19.68372
mp-1219093,SmU2Se5,Pna2_1,32,2,3,1,5,SmU2Se5,90.0,12.319053
mp-1219136,Sm3DyS4,Pmmm,8,2,4,1,4,DySm3S4,90.0,7.926475
mp-1219250,ScUS2,P4/mmm,4,2,2,1,2,ScUS2,90.0,5.314317
mp-1219343,ScCuSe2,C2/m,16,2,2,1,2,CuScSe2,117.08552035275841,6.767675
mp-1219448,Sm4GdS5,Immm,10,2,5,1,5,GdSm4S5,90.0,20.494912
mp-1219512,RuRhS4,P2_1/c,12,2,2,1,4,RhRuS4,90.0,-5.708659
mp-1219520,Sc(CuS)3,R-3,14,2,2,1,1,CuScS,120.00000064332707,18.442926
mp-1219527,Sc(CuSe)3,R-3,14,2,2,1,1,CuScSe,120.00000696654273,19.159571
mp-1219761,Pt3(RhSe5)2,P-3m1,15,2,4,1,5,Pt3RhSe5,120.00000170687784,25.52931
mp-1219948,NiSeS,P2_13,12,1,1,2,2,NiSSe,90.0,5.789356
mp-1220049,NiRuS4,P2_1/c,12,2,2,1,4,NiRuS4,90.0,-5.674506
mp-1220382,Nb5(SeS)2,C2/m,9,1,5,2,2,Nb5SSe,90.0,-7.080586
mp-1220396,NbMoSe3,P2_1/m,10,2,2,1,3,MoNbSe3,90.0,-8.898797
mp-1220398,NbMoS3,P2_1/m,10,2,2,1,3,MoNbS3,90.0,-8.531832
mp-1220404,NbMoS4,Pm,6,2,2,1,4,MoNbS4,90.0,-6.36365
mp-1220413,NbSeS,P-3m1,6,1,1,2,2,NbSSe,119.9999993751957,13.454823
mp-1220460,Nb4CuSe8,C2/m,13,2,5,1,8,CuNb4Se8,89.95647142446808,13.108432
mp-1220463,Nb6CuSe8,P-3,15,2,7,1,8,CuNb6Se8,120.0000009994154,3.476195
mp-1220566,Nb3WSe8,Cm,12,2,4,1,8,Nb3WSe8,90.0,-5.955883
mp-1220569,Nb4FeS8,C2/m,13,2,5,1,8,FeNb4S8,90.0,-5.610027
mp-1220583,Nb5V3S20,Cm,28,2,8,1,20,Nb5V3S20,90.0,-9.179525
mp-1220596,Nb4AgS8,R3m,13,2,5,1,8,AgNb4S8,120.00000032421245,81.588287
mp-1220686,Nb2CuSe4,P3m1,7,2,3,1,4,CuNb2Se4,119.9999889355213,13.909291
mp-1220691,Nb2CuS4,P3m1,7,2,3,1,4,CuNb2S4,119.9999874339765,13.23894
mp-1220734,Nb2FeS4,P-3m1,7,2,3,1,4,FeNb2S4,119.99999738662991,11.828619
mp-1221348,MnNiSe2,P-3m1,8,2,2,1,2,MnNiSe2,60.92370458323607,5.325423
mp-1221491,Mo2RuSe4,P1,14,2,3,1,4,Mo2RuSe4,93.72270245396365,6.741696
mp-1221510,MnZn4Se5,R3m,10,2,5,1,5,MnZn4Se5,119.99999333837623,49.976952
mp-1221540,Mn2SeS,R-3m,4,1,2,2,2,Mn2SSe,119.99999846627719,16.52827
mp-1221580,MnHgS2,R3m,4,2,2,1,2,HgMnS2,120.00000366105193,19.958857
mp-1221632,MnCdS2,R3m,4,2,2,1,2,CdMnS2,120.00001540599249,19.915154
mp-1221678,MnCd4S5,R3m,10,2,5,1,5,Cd4MnS5,120.00000107044552,50.809784
mp-1221690,MnCdSe4,P2_1/c,12,2,2,1,4,CdMnSe4,90.0,-6.592254
mp-1221768,Mn4CdS5,I4/m,10,2,5,1,5,CdMn4S5,90.0,5.284482
mp-1221940,Mn2FeSe3,P-3m1,6,2,3,1,3,FeMn2Se3,119.99998265415043,8.564523
mp-1221977,Mn4Te3Se,P-6m2,8,1,4,2,4,Mn4SeTe3,119.99999332533417,11.901783
mp-1221987,Mn2CrSe3,Immm,6,2,3,1,3,CrMn2Se3,90.0,11.293444
mp-1222234,Mn4FeS5,C2/m,10,2,5,1,5,FeMn4S5,90.0,-7.554227
mp-1222474,Mn2Cr13S20,P-1,35,2,15,1,20,Cr13Mn2S20,88.61048121446441,8.271363
mp-1222697,LaSmS2,R-3m,4,2,2,1,2,LaSmS2,120.00000580082862,20.195461
mp-1222713,LaUS2,R-3m,4,2,2,1,2,LaUS2,120.00001200047787,20.260912
mp-1222829,LaSeS,P2_1/c,12,1,1,2,2,LaSSe,90.0,-8.405504
mp-1223009,LaU2S5,Pna2_1,32,2,3,1,5,LaU2S5,90.0,11.821788
mp-1223069,La4Se7S,P1,12,1,4,2,8,La4SSe7,89.89368727180988,8.603085
mp-1223907,Hg2SeS,P-4m2,4,1,2,2,2,Hg2SSe,90.0,6.134291
mp-1224121,HfZrS6,Pm,8,2,2,1,6,HfZrS6,90.0,-9.176789
mp-1224524,Hf(Ti2Se5)2,P-3m1,15,2,3,1,5,HfTi2Se5,90.0,-34.024456
mp-1224687,Fe2CuS3,P3m1,6,2,3,1,3,CuFe2S3,120.00000000732331,9.059224
mp-1224725,Fe2NiSe4,Cm,7,2,3,1,4,Fe2NiSe4,90.0,-5.373584
mp-1224875,FeNiSe4,P2_1/c,12,2,2,1,4,FeNiSe4,90.0,-5.852382
mp-1224893,FeNiS4,P2_1/c,12,2,2,1,4,FeNiS4,90.0,-5.523754
mp-1224903,FeNiS2,P-3m1,4,2,2,1,2,FeNiS2,90.0,-5.15383
mp-1224949,FeCuS2,P-4m2,4,2,2,1,2,CuFeS2,90.0,5.323164
mp-1224971,FeCoS2,P-3m1,4,2,2,1,2,CoFeS2,119.99998641976397,5.103039
mp-1224978,FeCo3S8,R-3,12,2,4,1,8,Co3FeS8,119.99999997152366,9.505129
mp-1224980,FeCu3S8,R-3,12,2,4,1,8,Cu3FeS8,120.0000028971713,9.952292
mp-1225005,Fe2CuS3,P1,24,2,3,1,3,CuFe2S3,60.55252270839349,10.833268
mp-1225166,Fe4Te3S,P4mm,8,1,4,2,4,Fe4STe3,90.0,12.828124
mp-1225174,Fe(CoSe2)2,Cm,7,2,2,1,2,CoFeSe2,90.0,-5.38173
mp-1225183,Fe3Te2Se,P4mm,12,1,3,2,3,Fe3SeTe2,90.0,18.844184
mp-1225289,Dy2TeS2,Immm,5,1,2,2,3,Dy2S2Te,90.0,13.587141
mp-1225299,Eu2SeS,R-3m,4,1,2,2,2,Eu2SSe,120.00000589538332,20.781407
mp-1225330,Dy4CdS7,Cm,12,2,5,1,7,CdDy4S7,90.0,-11.204711
mp-1225331,Dy4CdSe7,Cm,12,2,5,1,7,CdDy4Se7,90.0,-11.751206
mp-1225403,Dy(CuSe)3,R-3,14,2,2,1,1,CuDySe,120.0000018847306,19.68423
mp-1225442,Dy4FeSe7,Cm,12,2,5,1,7,Dy4FeSe7,90.0,-11.576905
mp-1225604,FeNi35S32,I222,68,2,36,1,32,FeNi35S32,90.0,18.744238
mp-1225724,Dy(CuS)3,R-3,14,2,2,1,1,CuDyS,119.99999641013262,19.053854
mp-1225994,CoTeSe,P3m1,3,1,1,2,2,CoSeTe,119.99998833220629,5.423938
mp-1226013,CoNiSe2,P-3m1,4,2,2,1,2,CoNiSe2,119.99999482020904,5.171631
mp-1226030,CoSeS,P2_13,12,1,1,2,2,CoSSe,90.0,5.66823
mp-1226038,Cr5(Te3Se)2,P3m1,13,1,5,2,4,Cr5SeTe3,120.00001408898036,25.062668
mp-1226040,CoRuS4,P2_1/c,12,2,2,1,4,CoRuS4,90.0,-5.613802
mp-1226065,CoNi5S8,F-43m,14,2,6,1,8,CoNi5S8,90.0,9.422467
mp-1226084,CoNiSe4,P2_1/c,12,2,2,1,4,CoNiSe4,90.0,-5.897728
mp-1226240,CrFeS2,P-3m1,4,2,2,1,2,CrFeS2,119.99999945193454,5.315895
mp-1226309,CrCuS4,P2_1/c,12,2,2,1,4,CrCuS4,90.0,-5.792807
mp-1226336,CrFeS4,Imma,12,2,2,1,4,CrFeS4,90.0,9.568789
mp-1226346,Cr3(TeSe)2,C2/m,7,1,3,2,2,Cr3SeTe,90.0,-5.963994
mp-1226384,Gd(CuS)3,R-3,14,2,2,1,1,CuGdS,119.99999746977663,19.339718
mp-1226452,Cr5NiS8,P-1,14,2,6,1,8,Cr5NiS8,116.12688275464127,5.823149
mp-1226483,CeThS2,P4/mmm,4,2,2,1,2,CeThS2,90.0,5.691377
mp-1226502,CeNdS2,R-3m,4,2,2,1,2,CeNdS2,119.99999239160054,20.033257
mp-1226505,Cr11NiS16,C2/m,28,2,12,1,16,Cr11NiS16,90.0,-21.49404
mp-1226571,CeSm3S4,C2/m,8,2,4,1,4,CeSm3S4,90.0,-6.848999
mp-1226707,Cr12Fe3S20,P-1,35,2,15,1,20,Cr12Fe3S20,88.62155320332484,8.212021
mp-1226715,CdFeS2,R3m,4,2,2,1,2,CdFeS2,120.00000209490442,19.740379
mp-1226729,CdHgSe2,P-4m2,4,2,2,1,2,CdHgSe2,90.0,6.23243
mp-1226763,CdFeS2,P3m1,4,2,2,1,2,CdFeS2,119.99999380598466,6.629868
mp-1226783,Cd4Te3Se,Pmm2,8,1,4,2,4,Cd4SeTe3,90.0,9.263386
mp-1226811,Cd4Te3Se,R3m,8,1,4,2,4,Cd4SeTe3,120.00000720504812,45.125295
mp-1226917,Cd3FeSe4,P3m1,8,2,4,1,4,Cd3FeSe4,90.0,-14.121204
mp-1226940,Cd2TeSe,R3m,4,1,2,2,2,Cd2SeTe,120.00001470884764,22.193476
mp-1226950,Cd2TeS,P3m1,4,1,2,2,2,Cd2STe,119.99999178205019,7.269635
mp-1226952,Cd2TeSe,P-4m2,4,1,2,2,2,Cd2SeTe,90.0,6.393837
mp-1227608,La12Fe11S30,Cm,53,2,23,1,30,Fe11La12S30,90.0,-11.070614
mp-1238827,Cr2AgS4,Fd-3m,28,2,3,1,4,AgCr2S4,90.0,10.179274
mp-1238831,Cr2AgS4,P2/m,14,2,3,1,4,AgCr2S4,90.0,-6.37946
mp-1238841,Cr2CuS4,Pmmn,28,2,3,1,4,Cr2CuS4,90.0,12.036727
mp-1238890,Cr2HgS4,C2/m,14,2,3,1,4,Cr2HgS4,90.0,-5.457887
mp-1239195,Cr2CuS4,Pnma,28,2,3,1,4,Cr2CuS4,90.0,11.957597
mp-1245981,Y2Pt2S7,Fd-3m,22,2,4,1,7,Pt2Y2S7,90.0,12.243545
mp-12843,YCuS2,P2_12_12_1,16,2,2,1,2,CuYS2,90.0,13.484322