material_id,pretty_formula,count_unique_TM,count_TM,count_unique_C,count_C,consensus_formula,caxis
mp-1025077,TbSe2,1,1,1,2,TbSe2,8.38669
mp-1025159,Te4Rh3,1,3,1,4,Rh3Te4,-6.044135
mp-1025418,LaTe3,1,1,1,3,LaTe3,4.323544
mp-1025459,HfTe3,1,1,1,3,HfTe3,-10.316311
mp-1025472,NpTe3,1,1,1,3,NpTe3,4.501749
mp-1025482,DyTe3,1,1,1,3,DyTe3,4.61491
mp-1025522,ThTe3,1,1,1,3,ThTe3,-10.728837
mp-1025573,Te2W,1,1,1,2,WTe2,32.588478
mp-1025576,Te2Mo,1,1,1,2,MoTe2,33.019968
mp-10256,VTe,1,1,1,1,VTe,6.049173
mp-10264,NiTe,1,1,1,1,NiTe,20.093037
mp-1028,V3Te4,1,3,1,4,V3Te4,-6.095536
mp-1028698,WSe2,1,1,1,2,WSe2,40.137901
mp-1030319,Te2Mo,1,1,1,2,MoTe2,40.69329
mp-1040452,CeSe2,1,1,1,2,CeSe2,24.28906
mp-1066480,CdTe,1,1,1,1,CdTe,6.090652
mp-1071269,HgTe,1,1,1,1,HgTe,10.410545
mp-1071319,ZnTe,1,1,1,1,ZnTe,9.767387
mp-10761,FeTe,1,1,1,1,FeTe,5.081185
mp-1076964,GdTe2,1,1,1,2,GdTe2,8.933464
mp-1077365,YTe2,1,1,1,2,YTe2,8.916087
mp-1077948,Te4Pt3,1,3,1,4,Pt3Te4,-7.369794
mp-1078012,Cr3Te4,1,3,1,4,Cr3Te4,-6.153016
mp-1078612,LaTe3,1,1,1,3,LaTe3,4.43448
mp-1078669,NpTe3,1,1,1,3,NpTe3,4.337622
mp-1079443,MnTe,1,1,1,1,MnTe,7.010315
mp-1079818,CrTe,1,1,1,1,CrTe,7.171272
mp-1079832,ScTe,1,1,1,1,ScTe,13.843522
mp-1080073,MnTe,1,1,1,1,MnTe,7.260025
mp-1080248,CeSe2,1,1,1,2,CeSe2,10.526981
mp-1080249,CeSe2,1,1,1,2,CeSe2,12.502981
mp-1080251,CeSe2,1,1,1,2,CeSe2,6.898882
mp-1080252,CeSe2,1,1,1,2,CeSe2,8.556173
mp-1080256,CeSe2,1,1,1,2,CeSe2,13.935903
mp-1080259,CeSe2,1,1,1,2,CeSe2,8.776145
mp-1080260,CeSe2,1,1,1,2,CeSe2,11.347645
mp-1080265,CeSe2,1,1,1,2,CeSe2,8.436862
mp-1080268,CeSe2,1,1,1,2,CeSe2,6.664373
mp-1080269,CeSe2,1,1,1,2,CeSe2,17.235631
mp-1080270,CeSe2,1,1,1,2,CeSe2,-8.952175
mp-1080272,CeSe2,1,1,1,2,CeSe2,11.222683
mp-1080275,CeSe2,1,1,1,2,CeSe2,15.155017
mp-1080277,CeSe2,1,1,1,2,CeSe2,-11.538753
mp-1080279,CeSe2,1,1,1,2,CeSe2,12.914028
mp-1080292,CeSe2,1,1,1,2,CeSe2,-8.022321
mp-1080293,CeSe2,1,1,1,2,CeSe2,12.137582
mp-1080297,CeSe2,1,1,1,2,CeSe2,7.161727
mp-1080298,CeSe2,1,1,1,2,CeSe2,33.861071
mp-1080301,CeSe2,1,1,1,2,CeSe2,13.718509
mp-1080308,CeSe2,1,1,1,2,CeSe2,11.606453
mp-1080309,CeSe2,1,1,1,2,CeSe2,26.608491
mp-1080310,CeSe2,1,1,1,2,CeSe2,-10.620254
mp-1080311,CeSe2,1,1,1,2,CeSe2,8.008654
mp-1080313,CeSe2,1,1,1,2,CeSe2,37.385676
mp-1080314,CeSe2,1,1,1,2,CeSe2,5.638615
mp-1080324,CeSe2,1,1,1,2,CeSe2,9.330225
mp-1080326,CeSe2,1,1,1,2,CeSe2,-13.430014
mp-1080327,CeSe2,1,1,1,2,CeSe2,8.840759
mp-1080332,CeSe2,1,1,1,2,CeSe2,9.804855
mp-1080345,CeSe2,1,1,1,2,CeSe2,26.132118
mp-1080348,CeSe2,1,1,1,2,CeSe2,6.892566
mp-1080352,CeSe2,1,1,1,2,CeSe2,34.694445
mp-1080355,CeSe2,1,1,1,2,CeSe2,32.153577
mp-1080356,CeSe2,1,1,1,2,CeSe2,30.393101
mp-1080361,CeSe2,1,1,1,2,CeSe2,14.280127
mp-1080362,CeSe2,1,1,1,2,CeSe2,-39.066784
mp-1080363,CeSe2,1,1,1,2,CeSe2,16.47984
mp-1080367,CeSe2,1,1,1,2,CeSe2,-14.51721
mp-1080373,CeSe2,1,1,1,2,CeSe2,11.788877
mp-1080629,CeSe2,1,1,1,2,CeSe2,32.38622
mp-1080632,CeSe2,1,1,1,2,CeSe2,-28.367211
mp-1080636,CeSe2,1,1,1,2,CeSe2,32.309371
mp-1080642,CeSe2,1,1,1,2,CeSe2,8.571587
mp-1080793,PuTe3,1,1,1,3,PuTe3,4.374745
mp-1080851,CeSe2,1,1,1,2,CeSe2,21.621693
mp-1080855,CeSe2,1,1,1,2,CeSe2,-12.730939
mp-1080857,CeSe2,1,1,1,2,CeSe2,13.756164
mp-1080859,CeSe2,1,1,1,2,CeSe2,23.291546
mp-1080863,CeSe2,1,1,1,2,CeSe2,25.085196
mp-1080867,CeSe2,1,1,1,2,CeSe2,18.743095
mp-10844,Te2Ir,1,1,1,2,IrTe2,6.542625
mp-10845,Te2Ir,1,1,1,2,IrTe2,4.205373
mp-1084847,TbTe3,1,1,1,3,TbTe3,4.355882
mp-1086673,DyTe3,1,1,1,3,DyTe3,4.345676
mp-1087241,CeSe2,1,1,1,2,CeSe2,12.649223
mp-1087242,CeSe2,1,1,1,2,CeSe2,34.676503
mp-1087554,CeSe2,1,1,1,2,CeSe2,11.401723
mp-1094151,CeSe2,1,1,1,2,CeSe2,17.308944
mp-1096431,CeSe2,1,1,1,2,CeSe2,21.855916
mp-1098704,CeSe2,1,1,1,2,CeSe2,7.76439
mp-1098706,CeSe2,1,1,1,2,CeSe2,12.88514
mp-1098708,CeSe2,1,1,1,2,CeSe2,13.564154
mp-1100189,CeSe2,1,1,1,2,CeSe2,33.675646
mp-1100266,CeSe2,1,1,1,2,CeSe2,19.432253
mp-1101145,Te16Rh15,1,15,1,16,Rh15Te16,8.912103
mp-1102324,NiTe2,1,1,1,2,NiTe2,6.395228
mp-1102559,NbSe2,1,1,1,2,NbSe2,25.872656
mp-1103188,Zr3Te,1,3,1,1,Zr3Te,32.419984
mp-1103235,CuTe2,1,1,1,2,CuTe2,6.62184
mp-1103359,CoTe2,1,1,1,2,CoTe2,6.312416
mp-1103512,Te2Ir,1,1,1,2,IrTe2,14.327944
mp-1103932,Dy2Te5,1,2,1,5,Dy2Te5,4.373701
mp-1104212,La2Te5,1,2,1,5,La2Te5,4.478447
mp-1104233,Ce2Te5,1,2,1,5,Ce2Te5,4.417493
mp-1104504,Nb3Te4,1,3,1,4,Nb3Te4,-10.306055
mp-1104531,Sm2Te5,1,2,1,5,Sm2Te5,4.41687
mp-1105684,Tb2Te3,1,2,1,3,Tb2Te3,26.555201
mp-1105966,Gd2Te3,1,2,1,3,Gd2Te3,12.118901
mp-1115,PtSe2,1,1,1,2,PtSe2,6.117971
mp-1119,Nd2Te5,1,2,1,5,Nd2Te5,4.440388
mp-1120746,Te2Mo,1,1,1,2,MoTe2,-36.461405
mp-11447,UTe,1,1,1,1,UTe,3.752686
mp-11675,NbTe2,1,1,1,2,NbTe2,-8.925467
mp-1168,HfTe5,1,1,1,5,HfTe5,13.839638
mp-11687,VTe2,1,1,1,2,VTe2,-8.656625
mp-11693,TePt,1,1,1,1,PtTe,20.597861
mp-1173507,Np2Te3,1,2,1,3,Np2Te3,28.018924
mp-1176,TbTe,1,1,1,1,TbTe,6.184095
mp-1179059,TeMo6,1,6,1,1,Mo6Te,5.337232
mp-11800,Co3Se4,1,3,1,4,Co3Se4,-5.384818
mp-1181516,CuTe,1,1,1,1,CuTe,14.473921
mp-1183040,ZrSe,1,1,1,1,ZrSe,3.679818
mp-1183651,Cd3Te,1,3,1,1,Cd3Te,10.228256
mp-1183699,Co3Te,1,3,1,1,Co3Te,7.324101
mp-1183984,Cu3Te,1,3,1,1,Cu3Te,3.946662
mp-1184256,Fe3Se,1,3,1,1,Fe3Se,3.589608
mp-1184307,Fe3Te,1,3,1,1,Fe3Te,6.024731
mp-1184385,Eu3Te,1,3,1,1,Eu3Te,5.155859
mp-1184509,GdTe,1,1,1,1,GdTe,4.112164
mp-1184749,IrSe,1,1,1,1,IrSe,6.856805
mp-1185605,LaSe3,1,1,1,3,LaSe3,6.052322
mp-1185988,Mn3Te,1,3,1,1,Mn3Te,4.365773
mp-1185993,Mn3Te,1,3,1,1,Mn3Te,5.974322
mp-1186027,MoSe,1,1,1,1,MoSe,3.616084
mp-1186355,NpSe3,1,1,1,3,NpSe3,9.846181
mp-1186391,NpTe3,1,1,1,3,NpTe3,5.977651
mp-1186629,PmSe3,1,1,1,3,PmSe3,10.759056
mp-1186975,Sc3Te,1,3,1,1,Sc3Te,5.104363
mp-1187016,ScTe3,1,1,1,3,ScTe3,5.100532
mp-1187062,Th3Se,1,3,1,1,Th3Se,5.591728
mp-1187303,Tb3Se,1,3,1,1,Tb3Se,4.692315
mp-1187309,Tb3Te,1,3,1,1,Tb3Te,10.556382
mp-1187392,Tc3Te,1,3,1,1,Tc3Te,6.364178
mp-1187477,Ti3Te,1,3,1,1,Ti3Te,4.818872
mp-1187912,Zn3Se,1,3,1,1,Zn3Se,4.146787
mp-1188427,Dy2Te3,1,2,1,3,Dy2Te3,26.423062
mp-1189023,Cr2Se3,1,2,1,3,Cr2Se3,11.752889
mp-1189791,Y2Te3,1,2,1,3,Y2Te3,26.323263
mp-1193776,Te5Pd21,1,21,1,5,Pd21Te5,12.561359
mp-1197413,Sc9Te2,1,9,1,2,Sc9Te2,17.359317
mp-1204799,Tc2Te5,1,2,1,5,Tc2Te5,14.46182
mp-1205354,Sc2Se3,1,2,1,3,Sc2Se3,23.144248
mp-1205384,LaTe2,1,1,1,2,LaTe2,-9.269245
mp-1206225,Tb2Te3,1,2,1,3,Tb2Te3,35.751802
mp-1206927,Hf2Se,1,2,1,1,Hf2Se,12.27101
mp-1207258,Dy2Te3,1,2,1,3,Dy2Te3,35.859001
mp-1207306,Y2Te3,1,2,1,3,Y2Te3,35.54645
mp-1207735,Y8Te3,1,8,1,3,Y8Te3,-20.661595
mp-1207855,V5Te8,1,5,1,8,V5Te8,-6.576089
mp-1208221,Ti5Te8,1,5,1,8,Ti5Te8,-6.753715
mp-1208304,Te3Pd5,1,5,1,3,Pd5Te3,11.949075
mp-1208342,TbTe3,1,1,1,3,TbTe3,15.173155
mp-1213750,Cr5Te8,1,5,1,8,Cr5Te8,5.985904
mp-1213754,Cr5Te8,1,5,1,8,Cr5Te8,-6.840667
mp-1213756,Cr7Te8,1,7,1,8,Cr7Te8,-7.072689
mp-1215359,Zr5Se8,1,5,1,8,Zr5Se8,77.331085
mp-1215393,Zr3Te2,1,3,1,2,Zr3Te2,12.225614
mp-1215634,Zr2Te3,1,2,1,3,Zr2Te3,20.368035
mp-1216446,V9Te8,1,9,1,8,V9Te8,7.140841
mp-1217116,Ti3Se,1,3,1,1,Ti3Se,7.942745
mp-1217180,Ti2Te3,1,2,1,3,Ti2Te3,6.329851
mp-1217210,Ti2Te3,1,2,1,3,Ti2Te3,8.894318
mp-1217357,Te8Ir3,1,3,1,8,Ir3Te8,11.123958
mp-1217358,Te3Au,1,1,1,3,AuTe3,12.684502
mp-1217429,Te16Rh9,1,9,1,16,Rh9Te16,-8.693177
mp-1217443,Te2Pd7,1,7,1,2,Pd7Te2,21.937963
mp-1217447,Te10Rh7,1,7,1,10,Rh7Te10,9.947154
mp-1217469,TbTe2,1,1,1,2,TbTe2,10.74337
mp-1217665,Tb5Te9,1,5,1,9,Tb5Te9,-9.668576
mp-1217676,Tb8Se15,1,8,1,15,Tb8Se15,-12.180362
mp-1219373,Sc3Te4,1,3,1,4,Sc3Te4,42.050546
mp-1219396,Sc2Te3,1,2,1,3,Sc2Te3,12.720235
mp-1220085,Ni3Te4,1,3,1,4,Ni3Te4,5.723103
mp-1220206,Nd4Te7,1,4,1,7,Nd4Te7,17.619135
mp-1223902,HgTe,1,1,1,1,HgTe,3.118821
mp-1224444,Hf2Te3,1,2,1,3,Hf2Te3,19.994945
mp-1224485,Hf2Se3,1,2,1,3,Hf2Se3,-12.67345
mp-1224800,FeTe2,1,1,1,2,FeTe2,-5.839214
mp-1225322,Dy4Te7,1,4,1,7,Dy4Te7,17.575403
mp-1225676,Cu3Te2,1,3,1,2,Cu3Te2,6.044835
mp-1225805,Cu2Se,1,2,1,1,Cu2Se,6.414354
mp-1226086,Cr5Te6,1,5,1,6,Cr5Te6,-9.21053
mp-1226090,Co5Te6,1,5,1,6,Co5Te6,16.031116
mp-1226350,Cr3Te5,1,3,1,5,Cr3Te5,14.825803
mp-1226371,Cr2Se3,1,2,1,3,Cr2Se3,-8.303459
mp-1226456,Cr2Se3,1,2,1,3,Cr2Se3,8.364426
mp-1226722,CdTe,1,1,1,1,CdTe,3.165993
mp-1229041,AgTe3,1,1,1,3,AgTe3,12.681928
mp-1229101,Ag2Te,1,2,1,1,Ag2Te,6.373989
mp-1232216,PmSe2,1,1,1,2,PmSe2,8.549489
mp-1232237,ScSe2,1,1,1,2,ScSe2,7.933309
mp-12351,PrTe3,1,1,1,3,PrTe3,4.407405
mp-1237467,CeSe2,1,1,1,2,CeSe2,-9.036291
mp-12383,Sc2Te3,1,2,1,3,Sc2Te3,24.834921
mp-1247786,CeSe2,1,1,1,2,CeSe2,39.328855
mp-1247858,Ag2Te,1,2,1,1,Ag2Te,39.791779
mp-12581,CdTe,1,1,1,1,CdTe,6.433092
mp-12779,CdTe,1,1,1,1,CdTe,7.673695
mp-12884,Hf5Te4,1,5,1,4,Hf5Te4,3.783239
mp-13141,HgTe,1,1,1,1,HgTe,3.810819
mp-13152,TiSe,1,1,1,1,TiSe,5.984423
mp-1319,ZrTe,1,1,1,1,ZrTe,8.155712
mp-1329,LaTe2,1,1,1,2,LaTe2,9.291893
mp-1341,Te2Rh3,1,3,1,2,Rh3Te2,7.832826
mp-1361,IrSe2,1,1,1,2,IrSe2,21.262684
mp-13870,TaSe2,1,1,1,2,TaSe2,40.812689
mp-1406,MnTe,1,1,1,1,MnTe,5.769963
mp-1447,SmSe,1,1,1,1,SmSe,5.903642
mp-1453,NdSe,1,1,1,1,NdSe,5.984576
mp-1507,HgTe,1,1,1,1,HgTe,5.798157
mp-15081,Sm2Se3,1,2,1,3,Sm2Se3,11.403291
mp-1525,CeTe,1,1,1,1,CeTe,6.344924
mp-1539,ZrTe,1,1,1,1,ZrTe,3.898569
mp-1551,Te2Ir,1,1,1,2,IrTe2,-5.412166
mp-1556,PuTe,1,1,1,1,PuTe,6.292115
mp-1560,LaTe,1,1,1,1,LaTe,6.485343
mp-1561,TbSe,1,1,1,1,TbSe,5.794134
mp-15651,NiSe,1,1,1,1,NiSe,3.334952
mp-15669,Ti3Te4,1,3,1,4,Ti3Te4,-6.187362
mp-1592,Ag2Te,1,2,1,1,Ag2Te,-7.767704
mp-1628,TeRh,1,1,1,1,RhTe,5.713351
mp-16380,Nd2Te3,1,2,1,3,Nd2Te3,12.370208
mp-1662,Te2Au,1,1,1,2,AuTe2,5.171125
mp-1683,ZrSe3,1,1,1,3,ZrSe3,-10.073742
mp-1708,YTe,1,1,1,1,YTe,6.177483
mp-1782,ScSe,1,1,1,1,ScSe,5.479754
mp-1793,Zr3Te,1,3,1,1,Zr3Te,5.683739
mp-1811,HgTe,1,1,1,1,HgTe,6.154233
mp-1821,WSe2,1,1,1,2,WSe2,15.068951
mp-1830,NpTe,1,1,1,1,NpTe,3.778627
mp-1848,Te2Ru,1,1,1,2,RuTe2,6.466162
mp-1861,Cu2Te,1,2,1,1,Cu2Te,8.523477
mp-1907,TiTe2,1,1,1,2,TiTe2,6.816936
mp-1921,ThTe,1,1,1,1,ThTe,3.851567
mp-1967,TaTe2,1,1,1,2,TaTe2,-8.907497
mp-19736,EuTe,1,1,1,1,EuTe,3.999192
mp-19880,FeTe2,1,1,1,2,FeTe2,6.258678
mp-20120,FeSe,1,1,1,1,FeSe,3.063291
mp-20123,Te2Au,1,1,1,2,AuTe2,16.879993
mp-20196,NbTe4,1,1,1,4,NbTe4,6.956313
mp-202,TaTe4,1,1,1,4,TaTe4,20.909906
mp-203,NiTe,1,1,1,1,NiTe,5.270864
mp-20311,FeSe,1,1,1,1,FeSe,5.785767
mp-20328,U3Se4,1,3,1,4,U3Se4,8.670632
mp-20414,U7Te12,1,7,1,12,U7Te12,4.190906
mp-20438,PuTe,1,1,1,1,PuTe,3.804364
mp-20520,U3Te4,1,3,1,4,U3Te4,9.282194
mp-2076,ZrSe2,1,1,1,2,ZrSe2,6.686907
mp-20826,CuTe,1,1,1,1,CuTe,7.128868
mp-20862,CoSe2,1,1,1,2,CoSe2,5.821293
mp-2089,ZrTe3,1,1,1,3,ZrTe3,-10.518526
mp-20901,NiSe2,1,1,1,2,NiSe2,5.93587
mp-21009,EuSe,1,1,1,1,EuSe,6.170731
mp-21042,Te4Pt3,1,3,1,4,Pt3Te4,-6.919395
mp-21273,FeTe,1,1,1,1,FeTe,6.514508
mp-21335,UTe2,1,1,1,2,UTe2,8.881025
mp-2142,Te2Os,1,1,1,2,OsTe2,6.471212
mp-21559,Zr2Te,1,2,1,1,Zr2Te,20.114778
mp-21576,Sc2Te,1,2,1,1,Sc2Te,20.277561
mp-2159,DyTe,1,1,1,1,DyTe,6.159347
mp-2176,ZnTe,1,1,1,1,ZnTe,6.184826
mp-2189,CrSe,1,1,1,1,CrSe,6.185974
mp-21893,MnTe2,1,1,1,2,MnTe2,6.693249
mp-2204,Nd3Te4,1,3,1,4,Nd3Te4,9.545253
mp-2207,NbSe2,1,1,1,2,NbSe2,13.082752
mp-22231,UTe3,1,1,1,3,UTe3,4.447458
mp-22297,Cu2Se,1,2,1,1,Cu2Se,5.784531
mp-22309,CoSe2,1,1,1,2,CoSe2,5.842588
mp-22422,Ce3Te4,1,3,1,4,Ce3Te4,9.541748
mp-2269,UTe,1,1,1,1,UTe,6.161184
mp-22693,Te2W,1,1,1,2,WTe2,15.431851
mp-228,Te2Rh,1,1,1,2,RhTe2,5.515811
mp-22817,TaTe4,1,1,1,4,TaTe4,6.933773
mp-2285,Te2Ir,1,1,1,2,IrTe2,5.543341
mp-2330,Nb2Se3,1,2,1,3,Nb2Se3,-9.028352
mp-2388,CdTe,1,1,1,1,CdTe,6.133129
mp-2418,PdSe2,1,1,1,2,PdSe2,8.585061
mp-2503,Pd7Se4,1,7,1,4,Pd7Se4,10.350771
mp-2532,PrTe,1,1,1,1,PrTe,6.415628
mp-2578,NiTe2,1,1,1,2,NiTe2,5.242501
mp-267,Te2Ru,1,1,1,2,RuTe2,6.468023
mp-2730,HgTe,1,1,1,1,HgTe,6.685694
mp-2750,Cr2Te3,1,2,1,3,Cr2Te3,12.291433
mp-27793,Nb2Se,1,2,1,1,Nb2Se,-9.390932
mp-27840,Cr3Se4,1,3,1,4,Cr3Se4,-5.723338
mp-28223,LaSe2,1,1,1,2,LaSe2,-8.950477
mp-28228,Ag7Te4,1,7,1,4,Ag7Te4,9.198664
mp-28246,AgTe3,1,1,1,3,AgTe3,5.314656
mp-28500,UTe5,1,1,1,5,UTe5,17.950241
mp-28919,Hf3Te2,1,3,1,2,Hf3Te2,19.16137
mp-29639,Te7Pd20,1,20,1,7,Pd20Te7,11.369087
mp-29652,TaSe3,1,1,1,3,TaSe3,-10.32123
mp-29907,Te4Pd9,1,9,1,4,Pd9Te4,-9.034935
mp-29957,Zr5Te6,1,5,1,6,Zr5Te6,7.174039
mp-30067,Te3Pd10,1,10,1,3,Pd10Te3,12.649265
mp-30797,Nb5Te4,1,5,1,4,Nb5Te4,3.689599
mp-31103,Ni3Te2,1,3,1,2,Ni3Te2,-7.534268
mp-32578,Ce2Se3,1,2,1,3,Ce2Se3,26.724948
mp-32581,Pr2Te3,1,2,1,3,Pr2Te3,28.854986
mp-32654,Sc2Te3,1,2,1,3,Sc2Te3,-6.717012
mp-32682,Te8Ir3,1,3,1,8,Ir3Te8,-11.330877
mp-32688,Nd2Se3,1,2,1,3,Nd2Se3,26.802663
mp-32755,La2Te3,1,2,1,3,La2Te3,29.090625
mp-32811,Ag2Te,1,2,1,1,Ag2Te,7.66676
mp-32838,Ce2Te3,1,2,1,3,Ce2Te3,28.625784
mp-32873,Hf23Se25,1,23,1,25,Hf23Se25,15.681148
mp-32887,HfTe2,1,1,1,2,HfTe2,7.628794
mp-342,SmTe,1,1,1,1,SmTe,6.284818
mp-350,Zr5Te4,1,5,1,4,Zr5Te4,3.876459
mp-358,HgTe,1,1,1,1,HgTe,10.413739
mp-379,AgSe,1,1,1,1,AgSe,5.977212
mp-404,MnTe,1,1,1,1,MnTe,5.954169
mp-406,CdTe,1,1,1,1,CdTe,6.629049
mp-426,CoSe,1,1,1,1,CoSe,5.207417
mp-501,TaSe2,1,1,1,2,TaSe2,27.248077
mp-505536,CeTe2,1,1,1,2,CeTe2,9.060938
mp-505682,Dy2Te,1,2,1,1,Dy2Te,22.209452
mp-525,NbSe3,1,1,1,3,NbSe3,-15.011238
mp-540922,CrTe3,1,1,1,3,CrTe3,-10.34355
mp-541106,Nb2Se9,1,2,1,9,Nb2Se9,8.6417
mp-541180,Te3Pt2,1,2,1,3,Pt2Te3,52.605435
mp-541441,ZnTe,1,1,1,1,ZnTe,5.434806
mp-541582,ReSe2,1,1,1,2,ReSe2,6.872408
mp-541594,Sc8Te3,1,8,1,3,Sc8Te3,-18.951617
mp-542583,EuTe,1,1,1,1,EuTe,6.597363
mp-542621,TaSe2,1,1,1,2,TaSe2,9.548419
mp-542634,Ta2Te3,1,2,1,3,Ta2Te3,-10.335561
mp-564,TePd,1,1,1,1,PdTe,5.750165
mp-567525,Te2Au,1,1,1,2,AuTe2,-5.157002
mp-567832,TiTe,1,1,1,1,TiTe,7.302053
mp-568220,NbTe4,1,1,1,4,NbTe4,20.98175
mp-568251,Ni6Se5,1,6,1,5,Ni6Se5,17.012721
mp-568593,Pd34Se11,1,34,1,11,Pd34Se11,-21.517145
mp-568761,AgTe,1,1,1,1,AgTe,20.358743
mp-568841,Np3Te4,1,3,1,4,Np3Te4,9.321023
mp-568865,ZrTe,1,1,1,1,ZrTe,7.450959
mp-568998,CuSe,1,1,1,1,CuSe,17.038135
mp-569322,Te2Ir,1,1,1,2,IrTe2,13.587474
mp-569388,Te2Ir,1,1,1,2,IrTe2,22.916824
mp-569544,ZrTe,1,1,1,1,ZrTe,7.936423
mp-570,NdTe,1,1,1,1,NdTe,6.364327
mp-570122,Cr3Te4,1,3,1,4,Cr3Te4,-12.641849
mp-570451,Nb2Te3,1,2,1,3,Nb2Te3,-8.895236
mp-570562,Te3Pt2,1,2,1,3,Pt2Te3,-17.584677
mp-570668,LaSe2,1,1,1,2,LaSe2,-8.638033
mp-570751,Nb3Te,1,3,1,1,Nb3Te,5.30287
mp-571033,NiSe,1,1,1,1,NiSe,5.430158
mp-571133,NbSe2,1,1,1,2,NbSe2,28.215334
mp-571144,Sm3Te4,1,3,1,4,Sm3Te4,9.463493
mp-571195,ZnTe,1,1,1,1,ZnTe,10.704962
mp-571383,PdSe,1,1,1,1,PdSe,7.133222
mp-571486,CuSe,1,1,1,1,CuSe,17.434923
mp-571512,TePt,1,1,1,1,PtTe,5.661771
mp-571547,Te2Au,1,1,1,2,AuTe2,-8.438215
mp-571571,CeTe3,1,1,1,3,CeTe3,4.419389
mp-571576,LaTe2,1,1,1,2,LaTe2,-9.264585
mp-571651,TiSe,1,1,1,1,TiSe,6.495951
mp-573810,U2Te5,1,2,1,5,U2Te5,17.263589
mp-574283,GdTe,1,1,1,1,GdTe,6.260498
mp-583070,Re2Te5,1,2,1,5,Re2Te5,14.704622
mp-599,TiTe,1,1,1,1,TiTe,7.661766
mp-600216,U2Se3,1,2,1,3,U2Se3,11.069623
mp-601823,TaTe2,1,1,1,2,TaTe2,8.900276
mp-602,Te2Mo,1,1,1,2,MoTe2,15.346645
mp-604910,MnSe,1,1,1,1,MnSe,6.246356
mp-604914,VSe,1,1,1,1,VSe,6.572222
mp-604915,CrSe,1,1,1,1,CrSe,6.320517
mp-605,ZrTe5,1,1,1,5,ZrTe5,13.839632
mp-613,Te2Pd3,1,3,1,2,Pd3Te2,8.020999
mp-618,Pd7Se2,1,7,1,2,Pd7Se2,-9.55801
mp-619501,U2Te3,1,2,1,3,U2Te3,12.058675
mp-619905,Ti9Se2,1,9,1,2,Ti9Se2,15.510346
mp-623012,CuTe,1,1,1,1,CuTe,5.53306
mp-624307,Cu7Te4,1,7,1,4,Cu7Te4,7.947042
mp-638586,Te3Pd13,1,13,1,3,Pd13Te3,12.897122
mp-642301,Y7Te2,1,7,1,2,Y7Te2,23.215394
mp-645273,Ce10Te19,1,10,1,19,Ce10Te19,18.126749
mp-645449,Te3Au2,1,2,1,3,Au2Te3,12.232786
mp-650328,NbTe4,1,1,1,4,NbTe4,20.982016
mp-651772,UTe5,1,1,1,5,UTe5,18.382892
mp-652044,Ce10Se19,1,10,1,19,Ce10Se19,16.667876
mp-666,UTe2,1,1,1,2,UTe2,13.823583
mp-672389,MnTe,1,1,1,1,MnTe,-6.79662
mp-680260,Ti45Se16,1,45,1,16,Ti45Se16,17.695421
mp-680343,Ta21Te13,1,21,1,13,Ta21Te13,10.700234
mp-684555,USe2,1,1,1,2,USe2,10.671705
mp-684605,Cu17Se10,1,17,1,10,Cu17Se10,-32.967264
mp-684653,Cu2Se,1,2,1,1,Cu2Se,6.013966
mp-684787,U2Te3,1,2,1,3,U2Te3,27.714564
mp-684798,Ag2Te,1,2,1,1,Ag2Te,-6.845136
mp-684822,Co19Te34,1,19,1,34,Co19Te34,-14.796974
mp-684844,Pu2Te3,1,2,1,3,Pu2Te3,27.966689
mp-684869,Te16Rh11,1,11,1,16,Rh11Te16,10.099949
mp-684876,Te40Rh31,1,31,1,40,Rh31Te40,-11.687825
mp-684911,Sm2Te3,1,2,1,3,Sm2Te3,28.41074
mp-684965,ZrSe,1,1,1,1,ZrSe,27.83264
mp-684997,Ni23Te42,1,23,1,42,Ni23Te42,19.850131
mp-685003,Tb2Se3,1,2,1,3,Tb2Se3,26.161252
mp-685007,Tb5Te9,1,5,1,9,Tb5Te9,-11.951191
mp-685031,Tb8Se15,1,8,1,15,Tb8Se15,25.01066
mp-685047,V23Se40,1,23,1,40,V23Se40,-29.829671
mp-685048,Ag2Te,1,2,1,1,Ag2Te,27.11211
mp-685055,CrTe2,1,1,1,2,CrTe2,12.335424
mp-685069,Sc2Te3,1,2,1,3,Sc2Te3,13.697172
mp-685077,Fe2Te3,1,2,1,3,Fe2Te3,15.015322
mp-685099,IrSe3,1,1,1,3,IrSe3,17.965554
mp-685124,Ni19Se20,1,19,1,20,Ni19Se20,10.043215
mp-685146,CdTe,1,1,1,1,CdTe,7.636903
mp-685189,Cu29Se19,1,29,1,19,Cu29Se19,187.904549
mp-696673,Cr7Se8,1,7,1,8,Cr7Se8,-6.47776
mp-7007,NbSe2,1,1,1,2,NbSe2,24.677955
mp-7131,PrTe,1,1,1,1,PrTe,3.907568
mp-722,Pr3Se4,1,3,1,4,Pr3Se4,9.01226
mp-7273,Te8Rh3,1,3,1,8,Rh3Te8,11.115858
mp-740,NdTe3,1,1,1,3,NdTe3,4.396071
mp-7459,Te2Mo,1,1,1,2,MoTe2,-15.53442
mp-7498,Ti5Te4,1,5,1,4,Ti5Te4,3.744764
mp-754,Te2Rh,1,1,1,2,RhTe2,6.535375
mp-7564,Nb3Te4,1,3,1,4,Nb3Te4,3.661338
mp-7581,MoSe2,1,1,1,2,MoSe2,22.087988
mp-7818,Pd4Se,1,4,1,1,Pd4Se,5.762397
mp-782,Te2Pd,1,1,1,2,PdTe2,5.170725
mp-7834,TaSe2,1,1,1,2,TaSe2,21.280504
mp-788,CoTe,1,1,1,1,CoTe,5.303518
mp-794,CrTe,1,1,1,1,CrTe,6.329066
mp-7951,ThSe2,1,1,1,2,ThSe2,9.138242
mp-807,NpTe,1,1,1,1,NpTe,6.220228
mp-8357,UTe3,1,1,1,3,UTe3,-10.63289
mp-8591,USe2,1,1,1,2,USe2,4.080092
mp-8601,Te4Mo3,1,3,1,4,Mo3Te4,11.969277
mp-8628,Te4Pt3,1,3,1,4,Pt3Te4,-12.129789
mp-862863,Pa3Te,1,3,1,1,Pa3Te,4.576172
mp-862866,PaTe3,1,1,1,3,PaTe3,5.66066
mp-865430,YTe,1,1,1,1,YTe,4.060929
mp-865558,AcTe3,1,1,1,3,AcTe3,11.670781
mp-867290,TbTe,1,1,1,1,TbTe,4.07253
mp-8732,Ta2Se,1,2,1,1,Ta2Se,10.337985
mp-879,La3Te4,1,3,1,4,La3Te4,9.686145
mp-8884,ZnTe,1,1,1,1,ZnTe,7.179232
mp-900,RhSe,1,1,1,1,RhSe,5.669942
mp-9281,ZnTe,1,1,1,1,ZnTe,9.77596
mp-9399,SmTe3,1,1,1,3,SmTe3,4.372602
mp-9429,USe3,1,1,1,3,USe3,-10.110009
mp-945077,YTe3,1,1,1,3,YTe3,4.33525
mp-948,ZnTe,1,1,1,1,ZnTe,5.775373
mp-9521,Th7Te12,1,7,1,12,Th7Te12,4.355031
mp-974372,Rh3Se,1,3,1,1,Rh3Se,4.448812
mp-974469,ReTe,1,1,1,1,ReTe,8.862069
mp-975652,PrTe2,1,1,1,2,PrTe2,9.246695
mp-976953,Ni3Te,1,3,1,1,Ni3Te,4.268218
mp-979273,TePd3,1,3,1,1,Pd3Te,7.738609
mp-982778,Zn3Se,1,3,1,1,Zn3Se,4.785091
mp-982779,NbTe,1,1,1,1,NbTe,3.694211
mp-9945,CoTe2,1,1,1,2,CoTe2,6.286023
mp-9948,V5Te4,1,5,1,4,V5Te4,3.976519
mvc-11438,CoSe2,1,1,1,2,CoSe2,5.663175
mvc-11653,CrSe2,1,1,1,2,CrSe2,5.853046
mp-1008876,MnCoS,2,2,1,1,CoMnS,5.44
mp-1018631,Dy(CuS)2,2,2,1,1,CuDyS,6.356033
mp-1018637,Tb(CuS)2,2,2,1,1,CuTbS,6.371887
mp-1018806,MoSeS,1,1,2,2,MoSSe,19.532273
mp-1019322,Te2W,1,1,1,2,WTe2,15.117308
mp-1023124,Co2MoS4,2,3,1,4,Co2MoS4,10.310192
mp-1023931,TeWS,1,1,2,2,WSTe,23.968878
mp-1023959,TeMoS,1,1,2,2,MoSTe,23.86942
mp-1025224,V(CrS2)2,2,2,1,2,CrVS2,-5.354299
mp-1025269,Ti2CoS4,2,3,1,4,CoTi2S4,-5.176609
mp-1025305,Nb2CuS4,2,3,1,4,CuNb2S4,12.75524
mp-1025312,Mn(NbS2)2,2,2,1,2,MnNbS2,13.769009
mp-1025350,Nb2CoS4,2,3,1,4,CoNb2S4,13.342075
mp-1025368,Ti2VS4,2,3,1,4,Ti2VS4,-5.363109
mp-1025577,W3(SeS2)2,1,3,2,3,W3S2Se,29.705629
mp-1025584,W3(SeS2)2,1,3,2,3,W3S2Se,29.694536
mp-1025586,Te2W3S4,1,3,2,6,W3S4Te2,30.569943
mp-1025588,W3(Se2S)2,1,3,2,3,W3SSe2,30.254777
mp-1025599,W3(Se2S)2,1,3,2,3,W3SSe2,30.268004
mp-1025769,Te4Mo3S2,1,3,2,6,Mo3S2Te4,31.592606
mp-1025911,Mo2WS6,2,3,1,6,Mo2WS6,29.108745
mp-1025922,Mo2WS6,2,3,1,6,Mo2WS6,29.1005
mp-1025925,Mo3(SeS2)2,1,3,2,3,Mo3S2Se,29.667805
mp-1025937,Te4Mo3S2,1,3,2,6,Mo3S2Te4,31.711151
mp-1025988,Mo3(SeS2)2,1,3,2,3,Mo3S2Se,29.636817
mp-1026020,Te2Mo3S4,1,3,2,6,Mo3S4Te2,30.461398
mp-1026034,Mo(WS3)2,2,2,1,3,MoWS3,29.098697
mp-1026916,MoSeS,1,1,2,2,MoSSe,36.821553
mp-1026980,Mo2Se3S,1,2,2,4,Mo2SSe3,37.308583
mp-1027269,MoWS4,2,2,1,4,MoWS4,35.843449
mp-1027335,MoWS4,2,2,1,4,MoWS4,35.838786
mp-1027358,TeMoS,1,1,2,2,MoSTe,39.742531
mp-1027412,TeMoS,1,1,2,2,MoSTe,38.226936