material_id,formula,space_group,nsites,count_unique_TM,count_TM,count_unique_C,count_C,consensus_formula,ab_angle(degree),caxis
mp-1215765,YUS2,R-3m,4,2,2,1,2,UYS2,120.00001085982376,19.595827
mp-1215784,Zn4CdS5,P3m1,20,2,5,1,5,CdZn4S5,120.00001400433962,32.335411
mp-1216058,Y2TeS2,Immm,5,1,2,2,3,Y2S2Te,90.0,13.556012
mp-1216101,Y4US7,Cm,12,2,5,1,7,UY4S7,90.0,-11.259627
mp-1216108,Y4CdS7,Cm,12,2,5,1,7,CdY4S7,90.0,-11.225523
mp-1216124,Y4CrS7,Cm,12,2,5,1,7,CrY4S7,90.0,-10.957502
mp-1216385,VCuS4,Imma,12,2,2,1,4,CuVS4,90.0,9.643578
mp-1216534,U2SeS,P4/mmm,4,1,2,2,2,U2SSe,90.0,5.599228
mp-1216571,V2MoS4,Cm,7,2,3,1,4,MoV2S4,90.0,-5.385488
mp-1216698,TiSeS,P3m1,3,1,1,2,2,TiSSe,90.0,-6.461255
mp-1216784,TiMoS3,P2_1/m,10,2,2,1,3,MoTiS3,90.0,-8.440512
mp-1216843,V(CrS2)2,Cm,7,2,2,1,2,CrVS2,90.0,-5.296152
mp-1216896,TiCuS4,Imma,12,2,2,1,4,CuTiS4,90.0,9.67767
mp-1216903,TiCrS2,P-3m1,4,2,2,1,2,CrTiS2,120.00000799745565,5.930335
mp-1216997,V(Cr7S10)2,C2/m,35,2,8,1,10,Cr7VS10,90.0,-27.021305
mp-1217001,U3TiS6,Pmc2_1,20,2,4,1,6,TiU3S6,90.0,10.494713
mp-1217134,Ti3VS4,P2/m,8,2,4,1,4,Ti3VS4,90.0,-6.37541
mp-1217140,Ti3(SeS2)2,P3m1,9,1,3,2,3,Ti3S2Se,120.00000456072958,18.481287
mp-1217143,Ti3AgS6,R-3,10,2,4,1,6,AgTi3S6,120.00000252937473,19.378142
mp-1217148,Ti3VS6,R-3,10,2,4,1,6,Ti3VS6,120.00000034477253,17.337315
mp-1217178,Ti3FeS6,R-3,10,2,4,1,6,FeTi3S6,119.99999755575003,16.7199
mp-1217196,Ti5MnS10,P-3m1,16,2,6,1,10,MnTi5S10,120.00000580730811,29.960337
mp-1217205,Ti5CuS10,P-1,16,2,6,1,10,CuTi5S10,89.9400571042222,7.365753
mp-1217266,Ti(MoS2)2,Cm,7,2,2,1,2,MoTiS2,90.0,-5.472505
mp-1217360,Ti(CrS2)2,Cm,7,2,2,1,2,CrTiS2,90.0,-5.338229
mp-1217436,ThU2S5,Pna2_1,32,2,3,1,5,ThU2S5,90.0,11.822763
mp-1217524,Th2(Mo3S4)5,P-1,74,2,5,1,4,Mo3Th2S4,90.85248666066465,13.257438
mp-1217634,Tb3Sc2S7,C2/m,12,2,5,1,7,Sc2Tb3S7,90.0,-11.035198
mp-1217639,Tb4CeS7,Cm,12,2,5,1,7,CeTb4S7,90.0,-11.308558
mp-1217708,Tb2MnS4,Cmc2_1,14,2,3,1,4,MnTb2S4,90.0,12.90925
mp-1217770,Ta2AgS4,P-3m1,7,2,3,1,4,AgTa2S4,119.99999212707195,14.00884
mp-1217790,Ta(Mo2S5)2,P1,15,2,3,1,5,Mo2TaS5,98.06103581789321,7.837836
mp-1217794,Ta10SeS3,P4mm,14,1,10,2,4,Ta10S3Se,90.0,22.160897
mp-1217848,Tb(CuS)3,R-3,14,2,2,1,1,CuTbS,119.99999312661068,19.146946
mp-1217910,TaMoS4,Pm,6,2,2,1,4,MoTaS4,90.0,-6.296902
mp-1218002,Ta2MoS6,Cm,9,2,3,1,6,MoTa2S6,90.0,-6.393732
mp-1218051,Ta4MoS8,P-3m1,13,2,5,1,8,MoTa4S8,120.00001027661432,25.410429
mp-1218053,Ta3(CuS3)2,Cmc2_1,22,2,4,1,3,CuTa3S3,90.0,13.22237
mp-1218056,Ta4AgS8,Pm,13,2,5,1,8,AgTa4S8,90.0,-13.610973
mp-1218062,Ta3WS8,Imm2,12,2,4,1,8,Ta3WS8,90.0,26.050152
mp-1219053,SmEuS2,P4/mmm,4,2,2,1,2,EuSmS2,90.0,5.767219
mp-1219055,SmGdS3,Pnma,20,2,2,1,3,GdSmS3,90.0,15.359406
mp-1219140,Sm3YS4,C2/m,8,2,4,1,4,Sm3YS4,90.0,-6.830165
mp-1219173,Sm4EuS5,R-3m,10,2,5,1,5,EuSm4S5,120.00000649049962,48.921321
mp-1219501,RuSeS,P2_13,12,1,1,2,2,RuSSe,90.0,5.836325
mp-1219515,Ru2SeS3,P2_1,12,1,2,2,4,Ru2S3Se,90.0,-5.749197
mp-1219720,PtSeS,P3m1,3,1,1,2,2,PtSSe,119.99998921714655,5.42638
mp-1219726,PrUS2,R-3m,4,2,2,1,2,PrUS2,120.00001576673145,20.024627
mp-1219732,Pt4SeS3,P-4m2,8,1,4,2,4,Pt4S3Se,90.0,12.405952
mp-1219738,PrSm3S4,R-3m,8,2,4,1,4,PrSm3S4,120.00000146461464,39.759284
mp-1219823,PrU2S5,Pna2_1,32,2,3,1,5,PrU2S5,90.0,11.816575
mp-1219871,PdSeS,P2_12_12_1,12,1,1,2,2,PdSSe,90.0,8.31084
mp-1220154,NdU2S5,Pna2_1,32,2,3,1,5,NdU2S5,90.0,11.786078
mp-1220442,Nb6ZnS8,P-3,15,2,7,1,8,Nb6ZnS8,119.99999463557087,3.388832
mp-1220444,Nb6CdS8,P-3,15,2,7,1,8,CdNb6S8,120.00000276147591,3.380338
mp-1220455,NbW3S8,Pmm2,12,2,4,1,8,NbW3S8,90.0,13.071172
mp-1220620,Nb3WS8,R3m,12,2,4,1,8,Nb3WS8,120.00000743717202,76.438913
mp-1220692,Nb3IrS8,C2/m,12,2,4,1,8,IrNb3S8,90.0,-6.267001
mp-1220696,Nb2AgS4,P3m1,7,2,3,1,4,AgNb2S4,120.00001184117225,14.566298
mp-1220938,Nb3(CuS3)2,P3m1,22,2,4,1,3,CuNb3S3,120.00000473832792,40.714476
mp-1221404,MoSeS,P-3m1,6,1,1,2,2,MoSSe,120.00000378515092,14.262654
mp-1221485,Mo2SeS3,P3m1,6,1,2,2,4,Mo2S3Se,119.999997359239,14.163127
mp-1221501,Mo3(SeS)2,P1,14,1,3,2,2,Mo3SSe,91.65694468370718,6.604179
mp-1221502,MnZnS2,P3m1,4,2,2,1,2,MnZnS2,119.99999414000222,6.392648
mp-1221529,MnZnS4,P2_1/c,12,2,2,1,4,MnZnS4,90.0,-5.741799
mp-1221530,MnZn4S5,Cm,20,2,5,1,5,MnZn4S5,90.0,-6.349264
mp-1221533,MnZn4S5,P3m1,20,2,5,1,5,MnZn4S5,120.00000034093884,31.70936
mp-1221534,MnZn3S4,P3m1,8,2,4,1,4,MnZn3S4,119.99999074573769,12.732541
mp-1221581,MnHg2S3,P3m1,6,2,3,1,3,Hg2MnS3,120.00000625519431,10.126695
mp-1221590,MnHg3S4,R3m,8,2,4,1,4,Hg3MnS4,120.00000477574251,40.860196
mp-1221595,MnHg4S5,I-4m2,10,2,5,1,5,Hg4MnS5,90.0,29.678879
mp-1221643,MnCdS2,P3m1,4,2,2,1,2,CdMnS2,120.00000475924658,6.644164
mp-1221701,MnVS2,R-3m,4,2,2,1,2,MnVS2,120.00000385722578,16.711595
mp-1221703,MnCd2S3,Cm,12,2,3,1,3,Cd2MnS3,90.0,-9.466937
mp-1221706,Mn4CdS5,R-3m,10,2,5,1,5,CdMn4S5,119.99999871011177,45.446005
mp-1221772,MnCd4S5,Cm,20,2,5,1,5,Cd4MnS5,90.0,-6.764345
mp-1221777,MnCd4S5,Cm,20,2,5,1,5,Cd4MnS5,90.0,-9.529383
mp-1221805,Mn4FeS5,R-3m,10,2,5,1,5,FeMn4S5,119.9999941989486,43.873548
mp-1221850,Mn4CoS5,R-3m,10,2,5,1,5,CoMn4S5,120.00000157064012,42.864607
mp-1222040,Mn(CuS)2,F-43m,20,2,2,1,1,CuMnS,90.0,10.936706
mp-1222958,LaEuS2,R-3m,4,2,2,1,2,EuLaS2,119.9999918077276,20.303144
mp-1223418,La2CeS4,I-42d,14,2,3,1,4,CeLa2S4,90.0,8.689195
mp-1223955,Hg2TeS,R3m,4,1,2,2,2,Hg2STe,120.00001040000626,21.980955
mp-1224418,Hf2(SeS)3,Pm,8,1,2,2,2,Hf2SSe,90.0,-9.49811
mp-1224432,Hf(US)3,Pm-3m,7,2,2,1,1,HfUS,90.0,5.288358
mp-1224454,Hf3CoS6,R-3,10,2,4,1,6,CoHf3S6,120.00000408961378,17.276002
mp-1224473,Hf2NiS4,C2/m,7,2,3,1,4,Hf2NiS4,90.0,-5.42483
mp-1224493,Hf4FeS8,C2/m,13,2,5,1,8,FeHf4S8,90.0,-6.216645
mp-1224522,La9Mn5S21,R3,70,2,14,1,21,La9Mn5S21,119.99999728548507,17.474509
mp-1224623,Hf8Mo5S,Amm2,28,2,13,1,1,Hf8Mo5S,90.0,-7.664851
mp-1224776,Gd3Sc2S7,C2/m,12,2,5,1,7,Gd3Sc2S7,90.0,-11.093746
mp-1225004,FeCoS4,P2_1/c,12,2,2,1,4,CoFeS4,90.0,-5.462084
mp-1225090,FeNiS2,Imm2,16,2,2,1,2,FeNiS2,90.0,11.411231
mp-1225163,Fe2SeS,P-6m2,4,1,2,2,2,Fe2SSe,90.0,5.658565
mp-1225191,Fe3Rh3S8,R-3m,14,2,6,1,8,Fe3Rh3S8,119.99999793388132,16.554314
mp-1225204,Fe3(Se2S)2,Pm,18,1,3,2,3,Fe3SSe2,90.0,-10.691952
mp-1225337,Dy4MnS7,Cm,12,2,5,1,7,Dy4MnS7,90.0,-11.080797
mp-1225651,DyCrS3,Pnnm,40,2,2,1,3,CrDyS3,90.0,16.20422
mp-1225702,CuNi3S8,R-3,12,2,4,1,8,CuNi3S8,120.00000241703344,9.755151
mp-1225747,CuSeS,P2_13,12,1,1,2,2,CuSSe,90.0,5.985369
mp-1225772,Cu3Pd13S7,R3m,23,2,16,1,7,Cu3Pd13S7,120.00000126746905,7.744656
mp-1226019,Co5NiS8,F-43m,14,2,6,1,8,Co5NiS8,90.0,9.302891
mp-1226056,Co5CuS8,F-43m,14,2,6,1,8,Co5CuS8,90.0,9.386645
mp-1226064,CoNiS4,P2_1/c,12,2,2,1,4,CoNiS4,90.0,-5.585265
mp-1226070,CoCuS4,P2_1/c,12,2,2,1,4,CoCuS4,90.0,-5.741614
mp-1226106,CoRhS4,P2_1/c,12,2,2,1,4,CoRhS4,90.0,-5.638211
mp-1226130,Cr5NiS8,P2/m,14,2,6,1,8,Cr5NiS8,90.0,-10.903898
mp-1226263,Cr11NiS16,P-1,28,2,12,1,16,Cr11NiS16,90.55143089522144,8.225788
mp-1226267,Cr2SeS,P-6m2,4,1,2,2,2,Cr2SSe,120.00001361299438,6.05208
mp-1226292,Cr4(SeS)3,R3,10,1,4,2,2,Cr4SSe,119.99999769648105,16.672006
mp-1226328,Cr4Te3S,Imm2,8,1,4,2,4,Cr4STe3,90.0,-3.45875
mp-1226375,Cr3Rh3S8,P-1,14,2,6,1,8,Cr3Rh3S8,116.13248718056477,6.597495
mp-1226465,Co3Ni3S8,R-3m,14,2,6,1,8,Co3Ni3S8,120.00000036954225,16.169332
mp-1226504,Co(NiS2)2,P2/m,7,2,2,1,2,CoNiS2,90.0,-5.911825
mp-1226520,CeTh2S3,P-3m1,6,2,3,1,3,CeTh2S3,119.99999211381336,9.71367
mp-1226610,CeY4S7,Cm,12,2,5,1,7,CeY4S7,90.0,-11.325874
mp-1226713,CeDy4S7,Cm,12,2,5,1,7,CeDy4S7,90.0,-11.316788
mp-1226737,Ce2SeS,P4/mmm,4,1,2,2,2,Ce2SSe,90.0,5.827386
mp-1226812,Ce2ThS3,P-3m1,6,2,3,1,3,Ce2ThS3,120.0000045931487,9.84608
mp-1226820,Cd5TeS4,I-4m2,10,1,5,2,5,Cd5S4Te,90.0,30.167327
mp-1226846,Cd5Te4S,R3m,10,1,5,2,5,Cd5STe4,119.99999478437773,56.196782
mp-1226907,Cd3FeS4,P-4m2,8,2,4,1,4,Cd3FeS4,90.0,11.641501
mp-1226929,Cd4CoS5,Cm,20,2,5,1,5,Cd4CoS5,90.0,-15.726575
mp-1226961,Ce(PrS2)2,I-42d,14,2,2,1,2,CePrS2,90.0,8.646427
mp-1226993,La9Ni5S21,R3,70,2,14,1,21,La9Ni5S21,100.37613069621344,11.292212
mp-1227026,Cd4FeS5,Cm,20,2,5,1,5,Cd4FeS5,90.12783920389961,17.82525
mp-1227523,CeU2S5,Pna2_1,32,2,3,1,5,CeU2S5,90.0,11.654889
mp-1232268,Cr2AgS4,C2/m,14,2,3,1,4,AgCr2S4,90.0,-5.39827
mp-1232346,Cr2AgS4,Pnma,28,2,3,1,4,AgCr2S4,90.0,11.939822
mp-1237864,Nb2CuS4,Pnma,28,2,3,1,4,CuNb2S4,90.0,13.518351
mp-1238784,Cr2HgS4,P2/m,14,2,3,1,4,Cr2HgS4,90.0,-6.725468
mp-1238791,Cr2CuS4,C2/m,14,2,3,1,4,Cr2CuS4,90.0,-5.098944
mp-1238836,Cr2HgS4,Pnma,28,2,3,1,4,Cr2HgS4,90.0,12.853769
mp-1238867,Cr2CuS4,Pnma,28,2,3,1,4,Cr2CuS4,90.0,12.237567
mp-1239173,Cr2AgS4,Pmmn,28,2,3,1,4,AgCr2S4,90.0,13.147424
mp-1239177,Cr2AgS4,Pnma,28,2,3,1,4,AgCr2S4,90.0,12.583168
mp-1239184,Cr2HgS4,Pmmn,28,2,3,1,4,Cr2HgS4,90.0,13.422386
mp-14025,Zr2CuS4,Fd-3m,14,2,3,1,4,CuZr2S4,90.0,10.448072
mp-1492,CdTe,P3_121,6,1,1,1,1,CdTe,120.00001273520569,10.499976
mp-15613,Cu(RhS2)2,Fd-3m,14,2,2,1,2,CuRhS2,90.0,9.881729
mp-15958,Nb3VS6,P6_322,20,2,4,1,6,Nb3VS6,120.00000757821367,12.230195
mp-15973,Cr2HgS4,Fd-3m,14,2,3,1,4,Cr2HgS4,90.0,10.346049
mp-16684,PrCuS2,P2_1/c,16,2,2,1,2,CuPrS2,90.0,-6.85945
mp-16919,Y2HfS5,Pnma,32,2,3,1,5,HfY2S5,90.0,11.570741
mp-17105,Hf9V4S,P6_3/mmc,28,2,13,1,1,Hf9V4S,120.000000416154,8.412543
mp-19866,UTeS,Pnma,12,1,1,2,2,USTe,90.0,8.961132
mp-20499,Sc2FeS4,Fd-3m,14,2,3,1,4,FeSc2S4,90.0,10.506357
mp-20961,EuPd3S4,Pm-3n,16,2,4,1,4,EuPd3S4,90.0,6.738937
mp-21019,Cr2FeS4,Fd-3m,14,2,3,1,4,Cr2FeS4,90.0,10.010229
mp-2127,Pr3Te4,I-43d,14,1,3,1,4,Pr3Te4,90.0,9.602001
mp-21338,U(Mo3S4)2,R-3,15,2,4,1,4,Mo3US4,119.99999714695768,11.441487
mp-21871,CeCrS3,Pnma,20,2,2,1,3,CeCrS3,90.0,12.9158
mp-22063,UCrS3,Pnma,20,2,2,1,3,CrUS3,90.0,8.867984
mp-22119,U(PdS2)2,I4_1/a,14,2,2,1,2,PdUS2,90.0,11.875438
mp-22613,Nb3FeS6,P6_322,20,2,4,1,6,FeNb3S6,119.99999510203689,12.149795
mp-22658,Co2NiS4,Fd-3m,14,2,3,1,4,Co2NiS4,90.0,9.325306
mp-22803,Cr2CuS4,Fd-3m,14,2,3,1,4,Cr2CuS4,90.0,9.843137
mp-2550,NdTe2,P4/nmm,6,1,1,1,2,NdTe2,90.0,9.189379
mp-27380,FeMo3S4,P-1,16,2,4,1,4,FeMo3S4,95.91651081219612,6.46955
mp-27512,Cr2NiS4,C2/m,7,2,3,1,4,Cr2NiS4,90.0,-5.171076
mp-27554,Ag3AuS2,P4_132,48,2,4,1,2,Ag3AuS2,90.0,9.874385
mp-28308,Ta2NiS5,Cmcm,16,2,3,1,5,NiTa2S5,90.0,15.211997
mp-28356,U6Cu2S13,C2/c,42,2,8,1,13,Cu2U6S13,90.0,-13.824836
mp-28507,La8Nb7S22,Ccc2,74,2,15,1,22,La8Nb7S22,90.0,5.839377
mp-2889,LaPd3S4,Pm-3n,16,2,4,1,4,LaPd3S4,90.0,6.796806
mp-28941,HfAg2S3,Cmce,24,2,3,1,3,Ag2HfS3,90.0,12.773424
mp-29163,Ag2TeS3,Cc,12,1,2,2,4,Ag2S3Te,90.0,-7.299217
mp-29211,V4Cu3S8,R3m,15,2,7,1,8,Cu3V4S8,90.0,-6.238982
mp-29580,Ta9(CoS3)2,P-62m,34,2,10,1,3,CoTa9S3,120.00000135402766,6.610844
mp-29790,U3Te5,Pnma,32,1,3,1,5,U3Te5,90.0,16.264737
mp-2995,La2Fe2S5,Cmc2_1,18,2,4,1,5,Fe2La2S5,90.0,11.308032
mp-30075,Ti4FeS8,C2/m,26,2,5,1,8,FeTi4S8,90.0,-5.837448
mp-3102,TaCuS3,Pnma,20,2,2,1,3,CuTaS3,90.0,11.951226
mp-33449,Tb5AgS8,I-4,14,2,6,1,8,AgTb5S8,90.0,8.395027
mp-33670,NbIrS4,C2/m,6,2,2,1,4,IrNbS4,90.0,-5.148374
mp-34009,Ce(SmS2)2,I-42d,14,2,2,1,2,CeSmS2,90.0,8.546004
mp-34145,Ce2CdS4,I-42d,14,2,3,1,4,CdCe2S4,90.0,8.854025
mp-34376,Tb2CdS4,I-42d,14,2,3,1,4,CdTb2S4,90.0,8.636473
mp-34460,Ag3AuS2,R-3m,6,2,4,1,2,Ag3AuS2,119.99999845457211,8.619296
mp-34486,Pr5AgS8,I-4,14,2,6,1,8,AgPr5S8,90.0,8.704152
mp-34982,Ag3AuS2,P1,6,2,4,1,2,Ag3AuS2,80.95958887703786,5.822238
mp-35512,Dy5AgS8,I-4,14,2,6,1,8,AgDy5S8,90.0,8.367827
mp-35785,Y2CdS4,Fd-3m,14,2,3,1,4,CdY2S4,90.0,11.313983
mp-3581,Ta4MnS8,P6_3/mmc,26,2,5,1,8,MnTa4S8,120.0000075953811,12.497301
mp-35835,Ag(AuS)2,Pc,10,2,2,1,1,AgAuS,90.0,-7.287524
mp-36052,ScUS2,I4_1/amd,8,2,2,1,2,ScUS2,90.0,10.660531
mp-36088,La5SmS8,I-4,14,2,6,1,8,La5SmS8,90.0,8.70383
mp-3627,Eu(Mo3S4)2,R-3,15,2,4,1,4,EuMo3S4,88.7643756691717,6.568392
mp-3669,Mn(NbS2)4,P6_3/mmc,26,2,2,1,2,MnNbS2,119.99999819351592,11.721114
mp-37070,Pr2SmS4,I-42d,14,2,3,1,4,Pr2SmS4,90.0,8.615589
mp-37199,Ce(NdS2)2,I-42d,14,2,2,1,2,CeNdS2,90.0,8.57957
mp-37233,Nd2CdS4,I-42d,14,2,3,1,4,CdNd2S4,90.0,8.868011
mp-37449,Nd5AgS8,I-4,14,2,6,1,8,AgNd5S8,90.0,8.636761
mp-37923,Sm5AgS8,I-4,14,2,6,1,8,AgSm5S8,90.0,8.537224
mp-38901,Nd2SmS4,I-42d,14,2,3,1,4,Nd2SmS4,90.0,8.551928
mp-38931,Tb2SmS4,I-42d,14,2,3,1,4,SmTb2S4,90.0,8.352693
mp-3925,Co2CuS4,Fd-3m,14,2,3,1,4,Co2CuS4,90.0,9.47506
mp-3926,NbAg7S6,Pc,56,2,8,1,6,Ag7NbS6,90.0,-10.969586
mp-3930,Sc2MnS4,Fd-3m,14,2,3,1,4,MnSc2S4,90.0,10.61295
mp-3951,Ti2CuS4,Fd-3m,14,2,3,1,4,CuTi2S4,90.0,10.014853
mp-399,Te2Pt,P-3m1,3,1,1,1,2,PtTe2,119.9999903658715,5.345008
mp-4182,CrAgS2,R3m,4,2,2,1,2,AgCrS2,120.0000020189216,20.419008
mp-4194,Zn(CrS2)2,Fd-3m,14,2,2,1,2,CrZnS2,90.0,10.070586
mp-4841,LaCuS2,P2_1/c,16,2,2,1,2,CuLaS2,90.0,-6.880167
mp-504587,Fe9Cu9S16,P-42m,34,2,18,1,16,Cu9Fe9S16,90.0,5.217818
mp-505522,Fe(NiS2)2,Fd-3m,14,2,2,1,2,FeNiS2,90.0,9.382003
mp-5058,FeAgS2,I-42d,8,2,2,1,2,AgFeS2,90.0,10.283192
mp-5081,SmCuS2,P2_1/c,16,2,2,1,2,CuSmS2,90.0,-6.777481
mp-510471,GdCuS2,P2_1/c,16,2,2,1,2,CuGdS2,90.0,-6.708452
mp-510490,GdScS3,Pnma,20,2,2,1,3,GdScS3,90.0,9.553256
mp-5178,V2CuS4,Fd-3m,14,2,3,1,4,CuV2S4,90.0,9.872476
mp-5222,ReTeS,F-43m,12,1,1,2,2,ReSTe,90.0,10.193429
mp-5306,Nb4CrS8,P6_3/mmc,26,2,5,1,8,CrNb4S8,120.00000008503726,12.084944
mp-530870,Tb6CdS10,P1,68,2,7,1,10,CdTb6S10,108.79817743375294,29.641747
mp-530925,Fe6Ni9S20,P1,70,2,15,1,20,Fe6Ni9S20,119.36699707343226,27.003885
mp-531696,Ti9ZnS16,Pc,52,2,10,1,16,Ti9ZnS16,90.0,-9.890664
mp-532220,Dy(CrS2)3,Pna2_1,160,2,2,1,2,CrDyS2,90.0,-12.656194
mp-5335,U2PdS4,Fdd2,14,2,3,1,4,PdU2S4,90.0,13.19444
mp-540724,Fe4Cu2S7,Pmma,26,2,6,1,7,Cu2Fe4S7,90.0,11.707609
mp-542188,Cr(MoS2)2,C2/c,28,2,2,1,2,CrMoS2,90.0,-11.844275
mp-542189,Fe(MoS2)2,C2/c,28,2,2,1,2,FeMoS2,90.0,-11.70261
mp-542627,Fe2AgS3,Cmce,24,2,3,1,3,AgFe2S3,90.0,12.839699
mp-554120,DyCuS2,P2_12_12_1,16,2,2,1,2,CuDyS2,90.0,13.47609
mp-555044,DyCuS2,Pnma,16,2,2,1,2,CuDyS2,90.0,13.477916
mp-555345,CrCuS2,R3m,4,2,2,1,2,CrCuS2,120.00000149805776,19.263567
mp-555370,V(MoS2)2,C2/m,7,2,2,1,2,MoVS2,90.0,-5.505905
mp-555795,Y2CrS4,Pca2_1,56,2,3,1,4,CrY2S4,90.0,12.58706
mp-557373,Cu2WS4,I-42m,7,2,3,1,4,Cu2WS4,90.0,10.615969
mp-559388,U8FeS17,C2/m,26,2,9,1,17,FeU8S17,90.0,-10.039921
mp-559918,Ti2CuS4,R-3m,28,2,3,1,4,CuTi2S4,120.00000146034448,34.821743
mp-560676,CrAgS2,R3m,4,2,2,1,2,AgCrS2,120.00001137345026,27.14499
mp-561242,TaAgS3,Cmc2_1,10,2,2,1,3,AgTaS3,90.0,7.785585
mp-567584,Hf2Te,C2/m,12,1,2,1,1,Hf2Te,90.0,-10.128365
mp-5725,CuAg3S2,I4_1/amd,24,2,4,1,2,Ag3CuS2,90.0,11.908757
mp-572604,Eu2Re6S11,R-3c,38,2,8,1,11,Eu2Re6S11,119.99999723145004,31.736069
mp-5821,TaAgS3,Cmcm,10,2,2,1,3,AgTaS3,90.0,7.785995
mp-5862,CrCuS2,R3m,4,2,2,1,2,CrCuS2,120.00001761281354,18.352541
mp-615821,Ta9(FeS3)2,P-62m,17,2,10,1,3,FeTa9S3,119.99999493760194,3.318322
mp-619571,ScU8S17,C2/m,26,2,9,1,17,ScU8S17,90.0,-10.303283
mp-620369,TaAg7S6,Pc,28,2,8,1,6,Ag7TaS6,90.0,-10.665079
mp-640073,FeCuS2,P-4m2,8,2,2,1,2,CuFeS2,90.0,5.213413
mp-644883,CuAg3S2,I4_1/a,24,2,4,1,2,Ag3CuS2,90.0,11.772818
mp-669370,Ta5AuS,F-43m,28,2,6,1,1,AuTa5S,90.0,12.620321
mp-672708,Fe(CuS)2,F-43m,20,2,2,1,1,CuFeS,90.0,10.814955
mp-672709,Fe(CuS)2,F-43m,20,2,2,1,1,CuFeS,90.0,10.80418
mp-673875,Fe2RhS4,Imma,14,2,3,1,4,Fe2RhS4,90.0,9.598095
mp-674355,Co(NiS2)2,Imma,14,2,2,1,2,CoNiS2,90.0,9.370425
mp-674858,Co(NiS2)2,Fdd2,14,2,2,1,2,CoNiS2,110.31754950604974,5.838047
mp-675037,Sm2EuS4,I-42d,14,2,3,1,4,EuSm2S4,90.0,8.570744
mp-675067,Sm2ZnS4,I-42d,14,2,3,1,4,Sm2ZnS4,90.0,8.882194
mp-675143,Eu(GdS2)2,I-42d,14,2,2,1,2,EuGdS2,90.0,8.449898
mp-675307,Fe5Ni7S16,P1,56,2,12,1,16,Fe5Ni7S16,60.58007235345508,21.665276
mp-675336,Pr10US16,P-4,27,2,11,1,16,Pr10US16,90.0,8.583545
mp-675380,Nb15IrS32,P1,48,2,16,1,32,IrNb15S32,98.51252986042026,12.314901
mp-675643,Ce5AgS8,I-4,14,2,6,1,8,AgCe5S8,90.0,8.610354
mp-675691,Ni2RhS4,Imma,14,2,3,1,4,Ni2RhS4,90.0,9.594452
mp-675741,La10US16,P-4,27,2,11,1,16,La10US16,90.0,8.645364
mp-675781,Cu3(Mo3S4)4,P1,31,2,6,1,4,Cu3Mo3S4,83.83054655765613,9.535448
mp-675920,Ti6AgS12,C2/m,19,2,7,1,12,AgTi6S12,70.25756859582394,8.039373
mp-676058,V3NiS6,R-3,10,2,4,1,6,NiV3S6,120.00000201579026,17.190159
mp-676156,Gd5AgS8,I-4,14,2,6,1,8,AgGd5S8,90.0,8.385135
mp-676291,Ta6Te3S,P-1,60,1,6,2,4,Ta6STe3,86.22956130420114,13.503757
mp-676402,Ti8Cu3S16,C2/m,27,2,11,1,16,Cu3Ti8S16,90.0,-5.905537
mp-676751,Cr5AgS8,P2_1/m,28,2,6,1,8,AgCr5S8,90.0,-12.472394
mp-676880,Ce10US16,P-4,27,2,11,1,16,Ce10US16,90.0,8.466998
mp-677075,Gd2CdS4,I-42d,14,2,3,1,4,CdGd2S4,90.0,8.660551
mp-677272,La2EuS4,I-42d,14,2,3,1,4,EuLa2S4,90.0,8.713187
mp-677597,Ta4AgS8,P-1,26,2,5,1,8,AgTa4S8,89.80033268542277,13.491855
mp-680259,TaTe4,P4/ncc,120,1,1,1,4,TaTe4,90.0,20.917904
mp-685224,Sc22Fe7S40,P1,69,2,29,1,40,Fe7Sc22S40,119.29477115404146,29.844342
mp-685265,Nd6MnS10,P1,68,2,7,1,10,MnNd6S10,108.41327420357574,30.061027
mp-685513,Pr6MnS10,P1,68,2,7,1,10,MnPr6S10,108.77544272842128,30.32958
mp-685874,V(MoS2)2,P1,56,2,2,1,2,MoVS2,72.29966552768315,15.424082
mp-690962,Nb24(CuS8)5,Cm,69,2,25,1,8,CuNb24S8,90.0,-29.003385
mp-6980,ScCuS2,P3m1,4,2,2,1,2,CuScS2,120.00000763980253,6.014429
mp-7113,CrAuS2,R-3m,4,2,2,1,2,AuCrS2,119.99999361244173,21.437267
mp-7276,ScUS3,Cmcm,10,2,2,1,3,ScUS3,90.0,9.141701
mp-753211,FeCuS2,P3m1,4,2,2,1,2,CuFeS2,119.999996202363,6.253141
mp-760980,FeCu5S4,R3m,10,2,6,1,4,Cu5FeS4,120.00000376743968,37.807097
mp-7923,Co(MoS2)2,C2/m,28,2,2,1,2,CoMoS2,90.0,-11.241813
mp-8435,Ta2PdS6,C2/m,9,2,3,1,6,PdTa2S6,90.0,-9.100542
mp-8911,CuAgS,Cmcm,6,2,2,1,1,AgCuS,90.0,8.454771
mp-8976,Cu2WS4,P-42m,7,2,3,1,4,Cu2WS4,90.0,5.698991
mp-9483,Zr9V4S,P6_3/mmc,28,2,13,1,1,V4Zr9S,119.99999984586238,8.538396
mp-9635,Ag2HgS2,P2_1/c,10,2,3,1,2,Ag2HgS2,90.0,-6.40178
mp-971712,ZnCdS2,P-4m2,4,2,2,1,2,CdZnS2,90.0,5.747001
mp-978640,Sm(Mo3S4)2,R-3,15,2,4,1,4,Mo3SmS4,120.00000361841286,11.483068
mp-981379,Zn3CdS4,P-43m,8,2,4,1,4,CdZn3S4,90.0,5.572217
mp-985298,Ce2HfS5,Pnma,32,2,3,1,5,Ce2HfS5,90.0,11.364551
mp-985558,Ce2US5,Pnma,32,2,3,1,5,Ce2US5,90.0,11.78506
mvc-11131,Zn(CoS2)4,R-3m,13,2,2,1,2,CoZnS2,120.00000170982294,16.103149
mvc-11132,Zn(NiS2)2,Fd-3m,14,2,2,1,2,NiZnS2,90.0,9.851718
mvc-11313,Ti4ZnS8,R-3m,13,2,5,1,8,Ti4ZnS8,90.0,-6.243881
mvc-11742,Zn(FeS2)4,R-3m,13,2,2,1,2,FeZnS2,120.00000208274815,18.64698
mvc-12007,Y2(CuS2)3,Pnma,44,2,3,1,2,CuY2S2,90.0,13.556797
mvc-12731,Ti4ZnS8,R-3m,13,2,5,1,8,Ti4ZnS8,119.9999943021802,17.086841
mvc-12859,ZnCo2S5,Pmmn,16,2,3,1,5,Co2ZnS5,90.0,-13.296226
mvc-12948,Zn(FeS2)4,R-3m,13,2,2,1,2,FeZnS2,120.00000049224563,16.535086
mvc-12972,Mn2ZnS5,Pmmn,16,2,3,1,5,Mn2ZnS5,90.0,-14.017791
mvc-134,ZnFe2S5,Pmmn,16,2,3,1,5,Fe2ZnS5,90.0,13.470833
mvc-14446,V2ZnS4,Fd-3m,14,2,3,1,4,V2ZnS4,90.0,10.231849
mvc-14516,Y(CuS2)3,P2_12_12_1,40,2,2,1,2,CuYS2,90.0,14.342734
mvc-14774,Ti2ZnS5,Pmmn,16,2,3,1,5,Ti2ZnS5,90.0,14.964039
mvc-14775,V2ZnS5,Pmmn,16,2,3,1,5,V2ZnS5,90.0,-14.323055
mp-1001012,Sc2ZnS4,Fd-3m,14,2,3,1,4,Sc2ZnS4,90.0,10.550872
mp-1001015,Y2ZnS4,Fd-3m,14,2,3,1,4,Y2ZnS4,90.0,11.04298
mp-1001021,Y2ZnSe4,Fd-3m,14,2,3,1,4,Y2ZnSe4,90.0,11.568336
mp-1006324,Ce(YS2)3,P2_1/m,20,2,2,1,2,CeYS2,90.0,-10.762548
mp-1008873,MnCoSe,F-43m,3,2,2,1,1,CoMnSe,90.0,5.633245
mp-1018642,Y(CuS)2,P-3m1,5,2,2,1,1,CuYS,120.00000532598042,6.414112
mp-10199,Mn(NbS2)3,P6_322,20,2,2,1,2,MnNbS2,120.00000662272537,12.415092
mp-1023929,WSeS,P3m1,6,1,1,2,2,WSSe,120.00000932735423,23.022902
mp-1023953,MoSeS,P3m1,6,1,1,2,2,MoSSe,120.000006035449,22.986058
mp-1023954,MoWS4,P3m1,6,2,2,1,4,MoWS4,119.9999989634833,22.370032
mp-1025151,Cr2NiSe4,C2/m,7,2,3,1,4,Cr2NiSe4,90.0,-5.584557
mp-1025173,Ti(MoS2)2,C2/m,7,2,2,1,2,MoTiS2,90.0,-5.552289
mp-1025182,V2FeSe4,C2/m,7,2,3,1,4,FeV2Se4,90.0,-5.539771
mp-1025190,Co2NiSe4,C2/m,7,2,3,1,4,Co2NiSe4,90.0,-5.37123
mp-1025231,Pr2CrS4,C2/m,7,2,3,1,4,CrPr2S4,90.0,-6.179176
mp-1025263,Ti2NiS4,C2/m,7,2,3,1,4,NiTi2S4,90.0,-5.220159
mp-1025291,Ti(NbSe2)2,C2/m,7,2,2,1,2,NbTiSe2,90.0,-5.798197
mp-1025318,Co(NiSe2)2,C2/m,7,2,2,1,2,CoNiSe2,90.0,-5.386187
mp-1025322,V(CoSe2)2,C2/m,7,2,2,1,2,CoVSe2,90.0,-5.48505
mp-1025347,Ti2CoSe4,C2/m,7,2,3,1,4,CoTi2Se4,90.0,-5.454967
mp-1025575,Mo(WSe3)2,P-6m2,9,2,2,1,3,MoWSe3,120.00001226646772,30.740799
mp-1025587,Te4W3S2,P3m1,9,1,3,2,6,W3S2Te4,120.00001689914653,31.749362