nqpoint: 303    
npath: 3      
segment_nqpoint:
- 101
- 101
- 101
reciprocal_lattice:
- [   0.23474178,  -0.40658472,   0.00000000 ] # a*
- [   0.23474178,   0.40658472,   0.00000000 ] # b*
- [   0.00000000,   0.00000000,   0.05000000 ] # c*
natom: 2      
lattice:
- [     2.130000000000000,    -1.229756000000000,     0.000000000000000 ] # a
- [     2.130000000000000,     1.229756000000000,     0.000000000000000 ] # b
- [     0.000000000000000,     0.000000000000000,    20.000000000000000 ] # c
points:
- symbol: C  # 1
  coordinates: [  0.000000000000000,  0.000000000000000,  0.000000000000000 ]
  mass: 12.010700
- symbol: C  # 2
  coordinates: [  0.333333000000000,  0.333333000000000,  0.000000000000000 ]
  mass: 12.010700
supercell_matrix:
- [    4,    0,    0 ]
- [    0,    9,    0 ]
- [    0,    0,    1 ]

phonon:
- q-position: [    0.0000000,    0.0000000,    0.0000000 ]
  distance:    0.0000000
  band:
  - # 1
    frequency:   -0.0032368936
    eigenvector:
    - # atom 1
      - [  0.00000002090389,  0.00000000000000 ]
      - [  0.00000001961371,  0.00000000000000 ]
      - [  0.70710678118655,  0.00000000000000 ]
    - # atom 2
      - [  0.00000002090389,  0.00000000000000 ]
      - [  0.00000001961371,  0.00000000000000 ]
      - [  0.70710678118655,  0.00000000000000 ]
  - # 2
    frequency:   -0.0030328342
    eigenvector:
    - # atom 1
      - [  0.52024370628621,  0.00000000000000 ]
      - [  0.47890133229047,  0.00000000000000 ]
      - [ -0.00000002866349,  0.00000000000000 ]
    - # atom 2
      - [  0.52024370628621,  0.00000000000000 ]
      - [  0.47890133229047,  0.00000000000000 ]
      - [ -0.00000002866349,  0.00000000000000 ]
  - # 3
    frequency:    0.0102609997
    eigenvector:
    - # atom 1
      - [  0.47890133229047,  0.00000000000000 ]
      - [ -0.52024370628621,  0.00000000000000 ]
      - [  0.00000000027295,  0.00000000000000 ]
    - # atom 2
      - [  0.47890133229047,  0.00000000000000 ]
      - [ -0.52024370628621,  0.00000000000000 ]
      - [  0.00000000027295,  0.00000000000000 ]
  - # 4
    frequency:   26.1577866052
    eigenvector:
    - # atom 1
      - [  0.00000000000000,  0.00000000000000 ]
      - [ -0.00000000000000,  0.00000000000000 ]
      - [  0.70710678118655,  0.00000000000000 ]
    - # atom 2
      - [ -0.00000000000000,  0.00000000000000 ]
      - [ -0.00000000000000,  0.00000000000000 ]
      - [ -0.70710678118655,  0.00000000000000 ]
  - # 5
    frequency:   44.1191007711
    eigenvector:
    - # atom 1
      - [  0.49179909074564,  0.00000000000000 ]
      - [ -0.50806855279752,  0.00000000000000 ]
      - [  0.00000000000000,  0.00000000000000 ]
    - # atom 2
      - [ -0.49179909074564,  0.00000000000000 ]
      - [  0.50806855279752,  0.00000000000000 ]
      - [  0.00000000000000,  0.00000000000000 ]
  - # 6
    frequency:   45.1719361353
    eigenvector:
    - # atom 1
      - [ -0.50806855279752, -0.00000000000000 ]
      - [ -0.49179909074564,  0.00000000000000 ]
      - [  0.00000000000000,  0.00000000000000 ]
    - # atom 2
      - [  0.50806855279752,  0.00000000000000 ]
      - [  0.49179909074564,  0.00000000000000 ]
      - [  0.00000000000000,  0.00000000000000 ]

- q-position: [    0.0050000,    0.0000000,    0.0000000 ]
  distance:    0.0023474
  band:
  - # 1
    frequency:    0.1212933790
    eigenvector:
    - # atom 1
      - [ -0.00000000000019,  0.00000000000000 ]
      - [ -0.00000000000022, -0.00000000000000 ]
      - [ -0.70702117468060,  0.01100266119008 ]
    - # atom 2
      - [ -0.00000000000019,  0.00000000000000 ]
      - [ -0.00000000000022,  0.00000000000000 ]
      - [ -0.70700191457875,  0.01217755238083 ]
  - # 2
    frequency:    0.2603017416
    eigenvector:
    - # atom 1
      - [ -0.62568336368575,  0.00000000000000 ]
      - [ -0.32942408652989, -0.00031562767936 ]
      - [  0.00000000000027, -0.00000000000000 ]
    - # atom 2
      - [ -0.62567118986629,  0.00390304553062 ]
      - [ -0.32941570807705,  0.00237058621084 ]
      - [  0.00000000000027, -0.00000000000000 ]
  - # 3
    frequency:    0.5111001131
    eigenvector:
    - # atom 1
      - [ -0.32942542020505,  0.00000000000000 ]
      - [  0.62568189252799,  0.00103047819956 ]
      - [ -0.00000000000011,  0.00000000000000 ]
    - # atom 2
      - [ -0.32941549833154, -0.00255674329107 ]
      - [  0.62567104555580,  0.00382560790437 ]
      - [ -0.00000000000011,  0.00000000000000 ]
  - # 4
    frequency:   26.1568645337
    eigenvector:
    - # atom 1
      - [  0.00000000000000,  0.00000000000000 ]
      - [ -0.00000000000000, -0.00000000000000 ]
      - [  0.70700233471734,  0.01215313557193 ]
    - # atom 2
      - [ -0.00000000000000, -0.00000000000000 ]
      - [  0.00000000000000, -0.00000000000000 ]
      - [ -0.70702155424350, -0.01097824371671 ]
  - # 5
    frequency:   44.1198523097
    eigenvector:
    - # atom 1
      - [  0.49185388345259,  0.00000000000000 ]
      - [ -0.50801383057350,  0.00130586317858 ]
      - [ -0.00000000000000,  0.00000000000000 ]
    - # atom 2
      - [ -0.49185272079674, -0.00106944482669 ]
      - [  0.50800979036169,  0.00241044171909 ]
      - [  0.00000000000000, -0.00000000000000 ]
  - # 6
    frequency:   45.1714829574
    eigenvector:
    - # atom 1
      - [ -0.50801474217017, -0.00000000000000 ]
      - [ -0.49185368946065,  0.00098483588822 ]
      - [ -0.00000000000000,  0.00000000000000 ]
    - # atom 2
      - [  0.50799750748115, -0.00418457347372 ]
      - [  0.49184511524639, -0.00306665062262 ]
      - [  0.00000000000000, -0.00000000000000 ]

- q-position: [    0.0100000,    0.0000000,    0.0000000 ]
  distance:    0.0046948
  band:
  - # 1
    frequency:    0.2427199333
    eigenvector:
    - # atom 1
      - [ -0.00000000000009,  0.00000000000000 ]
      - [ -0.00000000000010, -0.00000000000000 ]
      - [ -0.70710635003902,  0.00078085498080 ]
    - # atom 2
      - [ -0.00000000000009,  0.00000000000000 ]
      - [ -0.00000000000010,  0.00000000000000 ]
      - [ -0.70709985702999,  0.00312924721952 ]
  - # 2
    frequency:    0.5205842853
    eigenvector:
    - # atom 1
      - [ -0.62571124995736,  0.00000000000000 ]
      - [ -0.32937066098151, -0.00063195047166 ]
      - [  0.00000000000012, -0.00000000000000 ]
    - # atom 2
      - [ -0.62566255023142,  0.00780650761332 ]
      - [ -0.32933714138746,  0.00474120022051 ]
      - [  0.00000000000012, -0.00000000000000 ]
  - # 3
    frequency:    1.0219901921
    eigenvector:
    - # atom 1
      - [ -0.32937599866620,  0.00000000000000 ]
      - [  0.62570535940226,  0.00206269676218 ]
      - [ -0.00000000000005,  0.00000000000000 ]
    - # atom 2
      - [ -0.32933629293943, -0.00511416173662 ]
      - [  0.62566195878643,  0.00765276617772 ]
      - [ -0.00000000000005,  0.00000000000000 ]
  - # 4
    frequency:   26.1540981221
    eigenvector:
    - # atom 1
      - [  0.00000000000000,  0.00000000000000 ]
      - [ -0.00000000000000,  0.00000000000000 ]
      - [  0.70634458387958,  0.03282268764113 ]
    - # atom 2
      - [ -0.00000000000000, -0.00000000000000 ]
      - [  0.00000000000000,  0.00000000000000 ]
      - [ -0.70644969701586, -0.03047664000848 ]
  - # 5
    frequency:   44.1221045403
    eigenvector:
    - # atom 1
      - [  0.49201890068432,  0.00000000000000 ]
      - [ -0.50784895701687,  0.00261500024323 ]
      - [ -0.00000000000000, -0.00000000000000 ]
    - # atom 2
      - [ -0.49201426485252, -0.00213583993880 ]
      - [  0.50783282039225,  0.00481953336394 ]
      - [  0.00000000000000, -0.00000000000000 ]
  - # 6
    frequency:   45.1701235647
    eigenvector:
    - # atom 1
      - [ -0.50785262089393, -0.00000000000000 ]
      - [ -0.49201810703897,  0.00197428391085 ]
      - [ -0.00000000000000,  0.00000000000000 ]
    - # atom 2
      - [  0.50778363331689, -0.00837056057412 ]
      - [  0.49198381111673, -0.00613555622811 ]
      - [  0.00000000000000, -0.00000000000000 ]

- q-position: [    0.0150000,    0.0000000,    0.0000000 ]
  distance:    0.0070423
  band:
  - # 1
    frequency:    0.3642686315
    eigenvector:
    - # atom 1
      - [ -0.00000000000003,  0.00000000000000 ]
      - [ -0.00000000000004, -0.00000000000000 ]
      - [ -0.70708805361268, -0.00514630335669 ]
    - # atom 2
      - [ -0.00000000000003,  0.00000000000000 ]
      - [ -0.00000000000004,  0.00000000000000 ]
      - [ -0.70710490713172, -0.00162797734570 ]
  - # 2
    frequency:    0.7808177380
    eigenvector:
    - # atom 1
      - [ -0.62570401873012,  0.00000000000000 ]
      - [ -0.32938364154604, -0.00094743171315 ]
      - [  0.00000000000004,  0.00000000000000 ]
    - # atom 2
      - [ -0.62559439481391,  0.01171205500474 ]
      - [ -0.32930819901148,  0.00711273567604 ]
      - [  0.00000000000004,  0.00000000000000 ]
  - # 3
    frequency:    1.5327789774
    eigenvector:
    - # atom 1
      - [ -0.32939565238553,  0.00000000000000 ]
      - [  0.62569076808772,  0.00309304369561 ]
      - [ -0.00000000000002, -0.00000000000000 ]
    - # atom 2
      - [ -0.32930631825569, -0.00767102127287 ]
      - [  0.62559310821853,  0.01147898684531 ]
      - [ -0.00000000000002, -0.00000000000000 ]
  - # 4
    frequency:   26.1494867795
    eigenvector:
    - # atom 1
      - [  0.00000000000000,  0.00000000000000 ]
      - [ -0.00000000000000, -0.00000000000000 ]
      - [  0.70627515052843,  0.03428427840918 ]
    - # atom 2
      - [ -0.00000000000000, -0.00000000000000 ]
      - [  0.00000000000000,  0.00000000000000 ]
      - [ -0.70643699610905, -0.03076963646885 ]
  - # 5
    frequency:   44.1258503066
    eigenvector:
    - # atom 1
      - [  0.49229607707661,  0.00000000000000 ]
      - [ -0.50757178981415,  0.00393073527907 ]
      - [ -0.00000000000000, -0.00000000000000 ]
    - # atom 2
      - [ -0.49228570221430, -0.00319607578039 ]
      - [  0.50753557397558,  0.00722590093026 ]
      - [  0.00000000000000, -0.00000000000000 ]
  - # 6
    frequency:   45.1678583847
    eigenvector:
    - # atom 1
      - [ -0.50758009971774, -0.00000000000000 ]
      - [ -0.49229422435151,  0.00297305241708 ]
      - [ -0.00000000000000,  0.00000000000000 ]
    - # atom 2
      - [  0.50742469338107, -0.01255938599579 ]
      - [  0.49221706228567, -0.00920901544128 ]
      - [  0.00000000000000, -0.00000000000000 ]

- q-position: [    0.0200000,    0.0000000,    0.0000000 ]
  distance:    0.0093897
  band:
  - # 1
    frequency:    0.4860179457
    eigenvector:
    - # atom 1
      - [ -0.00000000000002,  0.00000000000000 ]
      - [ -0.00000000000003, -0.00000000000000 ]
      - [ -0.70684033715712,  0.01940973383649 ]
    - # atom 2
      - [ -0.00000000000002,  0.00000000000000 ]
      - [ -0.00000000000003,  0.00000000000000 ]
      - [ -0.70669628133082,  0.02409078564905 ]
  - # 2
    frequency:    1.0409787458
    eigenvector:
    - # atom 1
      - [ -0.62568685492266,  0.00000000000000 ]
      - [ -0.32941518955371, -0.00126193038129 ]
      - [  0.00000000000003, -0.00000000000000 ]
    - # atom 2
      - [ -0.62549183686572,  0.01562057736936 ]
      - [ -0.32928101062589,  0.00948554785923 ]
      - [  0.00000000000003, -0.00000000000000 ]
  - # 3
    frequency:    2.0433759781
    eigenvector:
    - # atom 1
      - [ -0.32943654239754,  0.00000000000000 ]
      - [  0.62566331186023,  0.00412125287204 ]
      - [ -0.00000000000001,  0.00000000000000 ]
    - # atom 2
      - [ -0.32927775234151, -0.01022728115241 ]
      - [  0.62548968236513,  0.01530430618873 ]
      - [ -0.00000000000001,  0.00000000000000 ]
  - # 4
    frequency:   26.1430295273
    eigenvector:
    - # atom 1
      - [  0.00000000000000,  0.00000000000000 ]
      - [ -0.00000000000000, -0.00000000000000 ]
      - [  0.70497225255814,  0.05490103025536 ]
    - # atom 2
      - [ -0.00000000000000, -0.00000000000000 ]
      - [  0.00000000000000,  0.00000000000000 ]
      - [ -0.70532040567199, -0.05023072110475 ]
  - # 5
    frequency:   44.1310776827
    eigenvector:
    - # atom 1
      - [  0.49268869555158,  0.00000000000000 ]
      - [ -0.50717868502334,  0.00525649442825 ]
      - [ -0.00000000000000, -0.00000000000000 ]
    - # atom 2
      - [ -0.49267039122464, -0.00424692063471 ]
      - [  0.50711453198024,  0.00962812183875 ]
      - [  0.00000000000000, -0.00000000000000 ]
  - # 6
    frequency:   45.1646881475
    eigenvector:
    - # atom 1
      - [ -0.50719362514313, -0.00000000000000 ]
      - [ -0.49268523222038,  0.00398604642823 ]
      - [ -0.00000000000000, -0.00000000000000 ]
    - # atom 2
      - [  0.50691688395377, -0.01675249678180 ]
      - [  0.49254806553741, -0.01228941615890 ]
      - [  0.00000000000000, -0.00000000000000 ]

- q-position: [    0.0250000,    0.0000000,    0.0000000 ]
  distance:    0.0117371
  band:
  - # 1
    frequency:    0.6080369921
    eigenvector:
    - # atom 1
      - [ -0.00000000000001,  0.00000000000000 ]
      - [ -0.00000000000001,  0.00000000000000 ]
      - [ -0.70665726820157, -0.02520923041047 ]
    - # atom 2
      - [ -0.00000000000001,  0.00000000000000 ]
      - [ -0.00000000000001,  0.00000000000000 ]
      - [ -0.70684140837701, -0.01937068412843 ]
  - # 2
    frequency:    1.3010431430
    eigenvector:
    - # atom 1
      - [ -0.62566287384797,  0.00000000000000 ]
      - [ -0.32945938614535, -0.00157517269841 ]
      - [  0.00000000000001,  0.00000000000000 ]
    - # atom 2
      - [ -0.62535789107879,  0.01953304321359 ]
      - [ -0.32924961286681,  0.01186004702153 ]
      - [  0.00000000000001,  0.00000000000000 ]
  - # 3
    frequency:    2.5537098287
    eigenvector:
    - # atom 1
      - [ -0.32949274942810,  0.00000000000000 ]
      - [  0.62562611770289,  0.00514673899815 ]
      - [ -0.00000000000000, -0.00000000000000 ]
    - # atom 2
      - [ -0.32924469972557, -0.01278278640649 ]
      - [  0.62535480154419,  0.01912851954360 ]
      - [ -0.00000000000000, -0.00000000000000 ]
  - # 4
    frequency:   26.1347250063
    eigenvector:
    - # atom 1
      - [ -0.00000000000000,  0.00000000000000 ]
      - [ -0.00000000000000,  0.00000000000000 ]
      - [  0.47622719217830, -0.52269270267526 ]
    - # atom 2
      - [ -0.00000000000000,  0.00000000000000 ]
      - [ -0.00000000000000,  0.00000000000000 ]
      - [ -0.47189298479538,  0.52660897343371 ]
  - # 5
    frequency:   44.1377699736
    eigenvector:
    - # atom 1
      - [  0.49320147815804,  0.00000000000000 ]
      - [ -0.50666438256341,  0.00659586115364 ]
      - [  0.00000000000000, -0.00000000000000 ]
    - # atom 2
      - [ -0.49317316160474, -0.00528495317483 ]
      - [  0.50656461439864,  0.01202469882694 ]
      - [  0.00000000000000,  0.00000000000000 ]
  - # 6
    frequency:   45.1606139120
    eigenvector:
    - # atom 1
      - [ -0.50668806805107, -0.00000000000000 ]
      - [ -0.49319571833531,  0.00501847689978 ]
      - [  0.00000000000000, -0.00000000000000 ]
    - # atom 2
      - [  0.50625471674987, -0.02095137403223 ]
      - [  0.49298141879573, -0.01537928531551 ]
      - [  0.00000000000000, -0.00000000000000 ]

- q-position: [    0.0300000,    0.0000000,    0.0000000 ]
  distance:    0.0140845
  band:
  - # 1
    frequency:    0.7303925007
    eigenvector:
    - # atom 1
      - [ -0.00000000000001,  0.00000000000000 ]
      - [ -0.00000000000000,  0.00000000000000 ]
      - [ -0.70706738480414, -0.00746413734011 ]
    - # atom 2
      - [ -0.00000000000001,  0.00000000000000 ]
      - [ -0.00000000000001,  0.00000000000000 ]
      - [ -0.70710662300878, -0.00047296629096 ]
  - # 2
    frequency:    1.5609864303
    eigenvector:
    - # atom 1
      - [ -0.62563285715094,  0.00000000000000 ]
      - [ -0.32951474594845, -0.00188686397805 ]
      - [  0.00000000000001,  0.00000000000000 ]
    - # atom 2
      - [ -0.62519320923326,  0.02345043870536 ]
      - [ -0.32921246281578,  0.01423665620562 ]
      - [  0.00000000000001,  0.00000000000000 ]
  - # 3
    frequency:    3.0637123522
    eigenvector:
    - # atom 1
      - [ -0.32956278756810,  0.00000000000000 ]
      - [  0.62557998221790,  0.00616886526032 ]
      - [ -0.00000000000000, -0.00000000000000 ]
    - # atom 2
      - [ -0.32920570504959, -0.01533736328244 ]
      - [  0.62518925379558,  0.02295138315807 ]
      - [ -0.00000000000000, -0.00000000000000 ]
  - # 4
    frequency:   26.1245714884
    eigenvector:
    - # atom 1
      - [  0.00000000000000,  0.00000000000000 ]
      - [ -0.00000000000000, -0.00000000000000 ]
      - [  0.69478141556119,  0.13144879075438 ]
    - # atom 2
      - [ -0.00000000000000, -0.00000000000000 ]
      - [  0.00000000000000,  0.00000000000000 ]
      - [ -0.69604709598085, -0.12457303149809 ]
  - # 5
    frequency:   44.1459057138
    eigenvector:
    - # atom 1
      - [  0.49384071958318,  0.00000000000000 ]
      - [ -0.50602183673128,  0.00795263683737 ]
      - [ -0.00000000000000, -0.00000000000000 ]
    - # atom 2
      - [ -0.49380045012313, -0.00630648686831 ]
      - [  0.50587901654024,  0.01441403156141 ]
      - [  0.00000000000000,  0.00000000000000 ]
  - # 6
    frequency:   45.1556371059
    eigenvector:
    - # atom 1
      - [ -0.50605655887960, -0.00000000000000 ]
      - [ -0.49383179487862,  0.00607598402731 ]
      - [ -0.00000000000000, -0.00000000000000 ]
    - # atom 2
      - [  0.50543084462814, -0.02515754526064 ]
      - [  0.49352325081182, -0.01848134527224 ]
      - [  0.00000000000000, -0.00000000000000 ]

- q-position: [    0.0350000,    0.0000000,    0.0000000 ]
  distance:    0.0164319
  band:
  - # 1
    frequency:    0.8531496190
    eigenvector:
    - # atom 1
      - [ -0.00000000000000,  0.00000000000000 ]
      - [  0.00000000000000,  0.00000000000000 ]
      - [ -0.56845337120159, -0.42054817175866 ]
    - # atom 2
      - [ -0.00000000000000, -0.00000000000000 ]
      - [  0.00000000000000,  0.00000000000000 ]
      - [ -0.57325167804138, -0.41398371178434 ]
  - # 2
    frequency:    1.8207837950
    eigenvector:
    - # atom 1
      - [ -0.62559708665600,  0.00000000000000 ]
      - [ -0.32958073313689, -0.00219670491411 ]
      - [ -0.00000000000000,  0.00000000000000 ]
    - # atom 2
      - [ -0.62499791367359,  0.02737375999260 ]
      - [ -0.32916895381533,  0.01661580607882 ]
      - [ -0.00000000000000,  0.00000000000000 ]
  - # 3
    frequency:    3.5733162835
    eigenvector:
    - # atom 1
      - [ -0.32964612033062,  0.00000000000000 ]
      - [  0.62552520543939,  0.00718698204907 ]
      - [  0.00000000000000, -0.00000000000000 ]
    - # atom 2
      - [ -0.32916026908635, -0.01789083296079 ]
      - [  0.62499332869873,  0.02677264337052 ]
      - [  0.00000000000000, -0.00000000000000 ]
  - # 4
    frequency:   26.1125668909
    eigenvector:
    - # atom 1
      - [  0.00000000000000,  0.00000000000000 ]
      - [ -0.00000000000000, -0.00000000000000 ]
      - [  0.42222803105513,  0.56720674342898 ]
    - # atom 2
      - [ -0.00000000000000, -0.00000000000000 ]
      - [ -0.00000000000000, -0.00000000000000 ]
      - [ -0.42872243514226, -0.56231403468675 ]
  - # 5
    frequency:   44.1554586629
    eigenvector:
    - # atom 1
      - [  0.49461447026146,  0.00000000000000 ]
      - [ -0.50524198157561,  0.00933090893324 ]
      - [  0.00000000000000, -0.00000000000000 ]
    - # atom 2
      - [ -0.49456048658353, -0.00730748262353 ]
      - [  0.50504898221744,  0.01679438504688 ]
      - [  0.00000000000000,  0.00000000000000 ]
  - # 6
    frequency:   45.1497595782
    eigenvector:
    - # atom 1
      - [ -0.50529025948109, -0.00000000000000 ]
      - [ -0.49460127333793,  0.00716478094776 ]
      - [  0.00000000000000, -0.00000000000000 ]
    - # atom 2
      - [  0.50443582033338, -0.02937259762182 ]
      - [  0.49418139890212, -0.02159857987627 ]
      - [  0.00000000000000, -0.00000000000000 ]

- q-position: [    0.0400000,    0.0000000,    0.0000000 ]
  distance:    0.0187793
  band:
  - # 1
    frequency:    0.9763719516
    eigenvector:
    - # atom 1
      - [ -0.00000000000001,  0.00000000000000 ]
      - [ -0.00000000000001, -0.00000000000000 ]
      - [ -0.70710147508105, -0.00273933170753 ]
    - # atom 2
      - [ -0.00000000000001,  0.00000000000000 ]
      - [ -0.00000000000001,  0.00000000000000 ]
      - [ -0.70707671942725,  0.00652018742026 ]
  - # 2
    frequency:    2.0804100744
    eigenvector:
    - # atom 1
      - [ -0.62555569493375,  0.00000000000000 ]
      - [ -0.32965709538409, -0.00250439590956 ]
      - [  0.00000000000002,  0.00000000000000 ]
    - # atom 2
      - [ -0.62477194742113,  0.03130401219747 ]
      - [ -0.32911874912435,  0.01899793438165 ]
      - [  0.00000000000002, -0.00000000000000 ]
  - # 3
    frequency:    4.0824547011
    eigenvector:
    - # atom 1
      - [ -0.32974249460132,  0.00000000000000 ]
      - [  0.62546194135769,  0.00820043701052 ]
      - [ -0.00000000000001, -0.00000000000000 ]
    - # atom 2
      - [ -0.32910818264159, -0.02044301504798 ]
      - [  0.62476716790172,  0.03059204416437 ]
      - [ -0.00000000000001,  0.00000000000000 ]
  - # 4
    frequency:   26.0987087939
    eigenvector:
    - # atom 1
      - [  0.00000000000000,  0.00000000000000 ]
      - [ -0.00000000000000, -0.00000000000000 ]
      - [  0.66587028675789,  0.23794276877637 ]
    - # atom 2
      - [ -0.00000000000000, -0.00000000000000 ]
      - [  0.00000000000000, -0.00000000000000 ]
      - [ -0.66892898554108, -0.22920299366061 ]
  - # 5
    frequency:   44.1663977949
    eigenvector:
    - # atom 1
      - [  0.49553277890163,  0.00000000000000 ]
      - [ -0.50431341647106,  0.01073512931061 ]
      - [  0.00000000000000, -0.00000000000000 ]
    - # atom 2
      - [ -0.49546354003299, -0.00828344517357 ]
      - [  0.50406349971330,  0.01916385375683 ]
      - [  0.00000000000000,  0.00000000000000 ]
  - # 6
    frequency:   45.1429836700
    eigenvector:
    - # atom 1
      - [ -0.50437805743715, -0.00000000000000 ]
      - [ -0.49551389566754,  0.00829182587231 ]
      - [  0.00000000000000, -0.00000000000000 ]
    - # atom 2
      - [  0.50325777321653, -0.03359819223135 ]
      - [  0.49496564414325, -0.02473431409554 ]
      - [  0.00000000000000, -0.00000000000000 ]

- q-position: [    0.0450000,    0.0000000,    0.0000000 ]
  distance:    0.0211268
  band:
  - # 1
    frequency:    1.1001214375
    eigenvector:
    - # atom 1
      - [ -0.00000000000000,  0.00000000000000 ]
      - [  0.00000000000000, -0.00000000000000 ]
      - [ -0.36898785884645,  0.60319811009644 ]
    - # atom 2
      - [ -0.00000000000000,  0.00000000000000 ]
      - [  0.00000000000000, -0.00000000000000 ]
      - [ -0.36009803859989,  0.60854696005856 ]
  - # 2
    frequency:    2.3398397070
    eigenvector:
    - # atom 1
      - [ -0.62550876083595,  0.00000000000000 ]
      - [ -0.32974368234677, -0.00280963874207 ]
      - [ -0.00000000000000, -0.00000000000000 ]
    - # atom 2
      - [ -0.62451516917199,  0.03524220987132 ]
      - [ -0.32906160005001,  0.02138348638547 ]
      - [ -0.00000000000000, -0.00000000000000 ]
  - # 3
    frequency:    4.5910608374
    eigenvector:
    - # atom 1
      - [ -0.32985175911861,  0.00000000000000 ]
      - [  0.62539029340434,  0.00920857871721 ]
      - [  0.00000000000000,  0.00000000000000 ]
    - # atom 2
      - [ -0.32904934497672, -0.02299372879798 ]
      - [  0.62451086061075,  0.03440932992049 ]
      - [  0.00000000000000,  0.00000000000000 ]
  - # 4
    frequency:   26.0829944606
    eigenvector:
    - # atom 1
      - [ -0.00000000000000,  0.00000000000000 ]
      - [ -0.00000000000000, -0.00000000000000 ]
      - [  0.57694959722274, -0.40881433715627 ]
    - # atom 2
      - [ -0.00000000000000,  0.00000000000000 ]
      - [ -0.00000000000000,  0.00000000000000 ]
      - [ -0.57088938445078,  0.41723531816160 ]
  - # 5
    frequency:   44.1786872763
    eigenvector:
    - # atom 1
      - [  0.49660800797138,  0.00000000000000 ]
      - [ -0.50322199127671,  0.01217020600507 ]
      - [  0.00000000000000,  0.00000000000000 ]
    - # atom 2
      - [ -0.49652223882802, -0.00922929740059 ]
      - [  0.50290890053459,  0.02152032020647 ]
      - [  0.00000000000000, -0.00000000000000 ]
  - # 6
    frequency:   45.1353123050
    eigenvector:
    - # atom 1
      - [ -0.50330616282987, -0.00000000000000 ]
      - [ -0.49658163438129,  0.00946503315812 ]
      - [  0.00000000000000,  0.00000000000000 ]
    - # atom 2
      - [  0.50188198275041, -0.03783607977902 ]
      - [  0.49588801696189, -0.02789231240110 ]
      - [ -0.00000000000000, -0.00000000000000 ]

- q-position: [    0.0500000,    0.0000000,    0.0000000 ]
  distance:    0.0234742
  band:
  - # 1
    frequency:    1.2244581852
    eigenvector:
    - # atom 1
      - [ -0.00000000000000,  0.00000000000000 ]
      - [ -0.00000000000000,  0.00000000000000 ]
      - [ -0.68308485976402, -0.18274319237981 ]
    - # atom 2
      - [ -0.00000000000000,  0.00000000000000 ]
      - [ -0.00000000000000,  0.00000000000000 ]
      - [ -0.68596059394793, -0.17163351523114 ]
  - # 2
    frequency:    2.5990466807
    eigenvector:
    - # atom 1
      - [ -0.62545634195044,  0.00000000000000 ]
      - [ -0.32984038399599, -0.00311213742607 ]
      - [  0.00000000000000,  0.00000000000000 ]
    - # atom 2
      - [ -0.62422738513202,  0.03918937786271 ]
      - [ -0.32899728387359,  0.02377291563481 ]
      - [  0.00000000000000,  0.00000000000000 ]
  - # 3
    frequency:    5.0990680045
    eigenvector:
    - # atom 1
      - [ -0.32997380280087,  0.00000000000000 ]
      - [  0.62531034684999,  0.01021075841859 ]
      - [  0.00000000000000, -0.00000000000000 ]
    - # atom 2
      - [ -0.32898370206924, -0.02554279365472 ]
      - [  0.62422447599136,  0.03822424673476 ]
      - [  0.00000000000000, -0.00000000000000 ]
  - # 4
    frequency:   26.0654208607
    eigenvector:
    - # atom 1
      - [  0.00000000000000,  0.00000000000000 ]
      - [ -0.00000000000000, -0.00000000000000 ]
      - [  0.53337534042513,  0.46423134989613 ]
    - # atom 2
      - [ -0.00000000000000, -0.00000000000000 ]
      - [  0.00000000000000,  0.00000000000000 ]
      - [ -0.54083899043822, -0.45551420002210 ]
  - # 5
    frequency:   44.1922864300
    eigenvector:
    - # atom 1
      - [  0.49785524058150,  0.00000000000000 ]
      - [ -0.50195026231439,  0.01364161236976 ]
      - [  0.00000000000000, -0.00000000000000 ]
    - # atom 2
      - [ -0.49775198311184, -0.01013922495507 ]
      - [  0.50156833304049,  0.02386140642384 ]
      - [  0.00000000000000,  0.00000000000000 ]
  - # 6
    frequency:   45.1267491063
    eigenvector:
    - # atom 1
      - [ -0.50205757957096, -0.00000000000000 ]
      - [ -0.49781907863482,  0.01069353741885 ]
      - [  0.00000000000000,  0.00000000000000 ]
    - # atom 2
      - [  0.50029031927738, -0.04208811758662 ]
      - [  0.49696319068842, -0.03107690293670 ]
      - [  0.00000000000000, -0.00000000000000 ]

- q-position: [    0.0550000,    0.0000000,    0.0000000 ]
  distance:    0.0258216
  band:
  - # 1
    frequency:    1.3494403016
    eigenvector:
    - # atom 1
      - [  0.00000000000000,  0.00000000000000 ]
      - [  0.00000000000000,  0.00000000000000 ]
      - [ -0.65492263742293,  0.26660146096934 ]
    - # atom 2
      - [  0.00000000000000, -0.00000000000000 ]
      - [  0.00000000000000,  0.00000000000000 ]
      - [ -0.65008364739054,  0.27819283131563 ]
  - # 2
    frequency:    2.8580044805
    eigenvector:
    - # atom 1
      - [ -0.62539848744773,  0.00000000000000 ]
      - [ -0.32994710620321, -0.00341159877795 ]
      - [ -0.00000000000000,  0.00000000000000 ]
    - # atom 2
      - [ -0.62390836116032,  0.04314655230888 ]
      - [ -0.32892557897800,  0.02616668477442 ]
      - [ -0.00000000000000,  0.00000000000000 ]
  - # 3
    frequency:    5.6064095601
    eigenvector:
    - # atom 1
      - [ -0.33010853032802,  0.00000000000000 ]
      - [  0.62522218158686,  0.01120633108719 ]
      - [  0.00000000000000, -0.00000000000000 ]
    - # atom 2
      - [ -0.32891122211812, -0.02809002954954 ]
      - [  0.62390807595252,  0.04203654322010 ]
      - [  0.00000000000000, -0.00000000000000 ]
  - # 4
    frequency:   26.0459846960
    eigenvector:
    - # atom 1
      - [  0.00000000000000,  0.00000000000000 ]
      - [ -0.00000000000000, -0.00000000000000 ]
      - [  0.69694076814868,  0.11947202891188 ]
    - # atom 2
      - [ -0.00000000000000, -0.00000000000000 ]
      - [  0.00000000000000,  0.00000000000000 ]
      - [ -0.69895299728865, -0.10707337475400 ]
  - # 5
    frequency:   44.2071496741
    eigenvector:
    - # atom 1
      - [  0.49929280379584,  0.00000000000000 ]
      - [ -0.50047677901373,  0.01515551865591 ]
      - [ -0.00000000000000, -0.00000000000000 ]
    - # atom 2
      - [ -0.49917147484700, -0.01100648088069 ]
      - [  0.50002107196947,  0.02618441643781 ]
      - [  0.00000000000000, -0.00000000000000 ]
  - # 6
    frequency:   45.1172985454
    eigenvector:
    - # atom 1
      - [ -0.50061141235539, -0.00000000000000 ]
      - [ -0.49924392931324,  0.01198803000595 ]
      - [ -0.00000000000000,  0.00000000000000 ]
    - # atom 2
      - [  0.49846051070256, -0.04635628814522 ]
      - [  0.49820898682753, -0.03429313727016 ]
      - [  0.00000000000000, -0.00000000000000 ]

- q-position: [    0.0600000,    0.0000000,    0.0000000 ]
  distance:    0.0281690
  band:
  - # 1
    frequency:    1.4751237234
    eigenvector:
    - # atom 1
      - [  0.00000000000000,  0.00000000000000 ]
      - [  0.00000000000000,  0.00000000000000 ]
      - [ -0.70696423625006,  0.01419748792484 ]
    - # atom 2
      - [  0.00000000000000, -0.00000000000000 ]
      - [  0.00000000000000, -0.00000000000000 ]
      - [ -0.70655929429577,  0.02782020208871 ]
  - # 2
    frequency:    3.1166860361
    eigenvector:
    - # atom 1
      - [ -0.62533524377506,  0.00000000000000 ]
      - [ -0.33006375991599, -0.00370773285269 ]
      - [ -0.00000000000000,  0.00000000000000 ]