mesh: [    31,    31,    31 ]
nqpoint: 1536   
reciprocal_lattice:
- [   0.23474178,  -0.40658472,   0.00000000 ] # a*
- [   0.23474178,   0.40658472,   0.00000000 ] # b*
- [   0.00000000,   0.00000000,   0.05000000 ] # c*
natom:   2      
lattice:
- [     2.130000000000000,    -1.229756000000000,     0.000000000000000 ] # a
- [     2.130000000000000,     1.229756000000000,     0.000000000000000 ] # b
- [     0.000000000000000,     0.000000000000000,    20.000000000000000 ] # c
points:
- symbol: C  # 1
  coordinates: [  0.000000000000000,  0.000000000000000,  0.000000000000000 ]
  mass: 12.010700
- symbol: C  # 2
  coordinates: [  0.333333000000000,  0.333333000000000,  0.000000000000000 ]
  mass: 12.010700

phonon:
- q-position: [    0.0000000,    0.0000000,    0.0000000 ]
  distance_from_gamma:  0.000000000
  weight: 1    
  band:
  - # 1
    frequency:    -0.0032368936
  - # 2
    frequency:    -0.0030328342
  - # 3
    frequency:     0.0102609997
  - # 4
    frequency:    26.1577866052
  - # 5
    frequency:    44.1191007711
  - # 6
    frequency:    45.1719361353

- q-position: [    0.0322581,    0.0000000,    0.0000000 ]
  distance_from_gamma:  0.015144632
  weight: 6    
  band:
  - # 1
    frequency:     0.7857776204
  - # 2
    frequency:     1.6783338410
  - # 3
    frequency:     3.2939094353
  - # 4
    frequency:    26.1193794127
  - # 5
    frequency:    44.1500462046
  - # 6
    frequency:    45.1530941464

- q-position: [    0.0645161,    0.0000000,    0.0000000 ]
  distance_from_gamma:  0.030289264
  weight: 6    
  band:
  - # 1
    frequency:     1.5892916607
  - # 2
    frequency:     3.3500734462
  - # 3
    frequency:     6.5699167625
  - # 4
    frequency:    26.0038346073
  - # 5
    frequency:    44.2387441660
  - # 6
    frequency:    45.0968812965

- q-position: [    0.0967742,    0.0000000,    0.0000000 ]
  distance_from_gamma:  0.045433896
  weight: 6    
  band:
  - # 1
    frequency:     2.4257911285
  - # 2
    frequency:     5.0079999924
  - # 3
    frequency:     9.8101748901
  - # 4
    frequency:    25.8102938009
  - # 5
    frequency:    44.3725281379
  - # 6
    frequency:    45.0048698786

- q-position: [    0.1290323,    0.0000000,    0.0000000 ]
  distance_from_gamma:  0.060578528
  weight: 6    
  band:
  - # 1
    frequency:     3.3062062162
  - # 2
    frequency:     6.6436911711
  - # 3
    frequency:    12.9968292468
  - # 4
    frequency:    25.5376756692
  - # 5
    frequency:    44.5262730267
  - # 6
    frequency:    44.8849117707

- q-position: [    0.1612903,    0.0000000,    0.0000000 ]
  distance_from_gamma:  0.075723160
  weight: 6    
  band:
  - # 1
    frequency:     4.2361902941
  - # 2
    frequency:     8.2470136116
  - # 3
    frequency:    16.1120927138
  - # 4
    frequency:    25.1851323641
  - # 5
    frequency:    44.6029990632
  - # 6
    frequency:    44.8121846646

- q-position: [    0.1935484,    0.0000000,    0.0000000 ]
  distance_from_gamma:  0.090867791
  weight: 6    
  band:
  - # 1
    frequency:     5.2160723560
  - # 2
    frequency:     9.8057131875
  - # 3
    frequency:    19.1383165302
  - # 4
    frequency:    24.7525798391
  - # 5
    frequency:    44.4518098479
  - # 6
    frequency:    44.9132585658

- q-position: [    0.2258065,    0.0000000,    0.0000000 ]
  distance_from_gamma:  0.106012423
  weight: 6    
  band:
  - # 1
    frequency:     6.2414150901
  - # 2
    frequency:    11.3051122627
  - # 3
    frequency:    22.0581018163
  - # 4
    frequency:    24.2412461743
  - # 5
    frequency:    44.2243392358
  - # 6
    frequency:    45.0117880037

- q-position: [    0.2580645,    0.0000000,    0.0000000 ]
  distance_from_gamma:  0.121157055
  weight: 6    
  band:
  - # 1
    frequency:     7.3037965388
  - # 2
    frequency:    12.7279210044
  - # 3
    frequency:    23.6542261446
  - # 4
    frequency:    24.8544526744
  - # 5
    frequency:    43.9650256945
  - # 6
    frequency:    45.0403096776

- q-position: [    0.2903226,    0.0000000,    0.0000000 ]
  distance_from_gamma:  0.136301687
  weight: 6    
  band:
  - # 1
    frequency:     8.3914335348
  - # 2
    frequency:    14.0541819077
  - # 3
    frequency:    22.9971111873
  - # 4
    frequency:    27.5109692278
  - # 5
    frequency:    43.6867210248
  - # 6
    frequency:    44.9664667756

- q-position: [    0.3225806,    0.0000000,    0.0000000 ]
  distance_from_gamma:  0.151446319
  weight: 6    
  band:
  - # 1
    frequency:     9.4892438647
  - # 2
    frequency:    15.2614000748
  - # 3
    frequency:    22.2789126213
  - # 4
    frequency:    30.0120725978
  - # 5
    frequency:    43.4016385066
  - # 6
    frequency:    44.7635038294

- q-position: [    0.3548387,    0.0000000,    0.0000000 ]
  distance_from_gamma:  0.166590951
  weight: 6    
  band:
  - # 1
    frequency:    10.5777447858
  - # 2
    frequency:    16.3249664982
  - # 3
    frequency:    21.5138105349
  - # 4
    frequency:    32.3432395938
  - # 5
    frequency:    43.1240003404
  - # 6
    frequency:    44.4085260161

- q-position: [    0.3870968,    0.0000000,    0.0000000 ]
  distance_from_gamma:  0.181735583
  weight: 6    
  band:
  - # 1
    frequency:    11.6295122431
  - # 2
    frequency:    17.2190414803
  - # 3
    frequency:    20.7250163649
  - # 4
    frequency:    34.4911804884
  - # 5
    frequency:    42.8696937031
  - # 6
    frequency:    43.8830879894

- q-position: [    0.4193548,    0.0000000,    0.0000000 ]
  distance_from_gamma:  0.196880215
  weight: 6    
  band:
  - # 1
    frequency:    12.6001179735
  - # 2
    frequency:    17.9180835481
  - # 3
    frequency:    19.9538946705
  - # 4
    frequency:    36.4436996429
  - # 5
    frequency:    42.6519558551
  - # 6
    frequency:    43.1771663661

- q-position: [    0.4516129,    0.0000000,    0.0000000 ]
  distance_from_gamma:  0.212024847
  weight: 6    
  band:
  - # 1
    frequency:    13.4072120081
  - # 2
    frequency:    18.3991056703
  - # 3
    frequency:    19.2807649173
  - # 4
    frequency:    38.1876740165
  - # 5
    frequency:    42.2297016904
  - # 6
    frequency:    42.5413996383

- q-position: [    0.4838710,    0.0000000,    0.0000000 ]
  distance_from_gamma:  0.227169479
  weight: 6    
  band:
  - # 1
    frequency:    13.8994853057
  - # 2
    frequency:    18.6444490206
  - # 3
    frequency:    18.8557439629
  - # 4
    frequency:    39.6817848170
  - # 5
    frequency:    41.1773109480
  - # 6
    frequency:    42.4423727231

- q-position: [    0.0645161,    0.0322581,    0.0000000 ]
  distance_from_gamma:  0.026231271
  weight: 6    
  band:
  - # 1
    frequency:     1.3713064077
  - # 2
    frequency:     3.2289619830
  - # 3
    frequency:     5.4575601503
  - # 4
    frequency:    26.0357150872
  - # 5
    frequency:    44.2024104297
  - # 6
    frequency:    45.0726762964

- q-position: [    0.0967742,    0.0322581,    0.0000000 ]
  distance_from_gamma:  0.040068929
  weight: 12   
  band:
  - # 1
    frequency:     2.2015875744
  - # 2
    frequency:     4.8909346563
  - # 3
    frequency:     8.4043271808
  - # 4
    frequency:    25.8709239885
  - # 5
    frequency:    44.3190282492
  - # 6
    frequency:    44.9477830912

- q-position: [    0.1290323,    0.0322581,    0.0000000 ]
  distance_from_gamma:  0.054604746
  weight: 12   
  band:
  - # 1
    frequency:     3.0469187025
  - # 2
    frequency:     6.5043829144
  - # 3
    frequency:    11.4898964024
  - # 4
    frequency:    25.6297244021
  - # 5
    frequency:    44.4682992236
  - # 6
    frequency:    44.7956550250

- q-position: [    0.1612903,    0.0322581,    0.0000000 ]
  distance_from_gamma:  0.069401421
  weight: 12   
  band:
  - # 1
    frequency:     3.9282427837
  - # 2
    frequency:     8.0886017159
  - # 3
    frequency:    14.5730813967
  - # 4
    frequency:    25.3116403526
  - # 5
    frequency:    44.5517004436
  - # 6
    frequency:    44.6969979124

- q-position: [    0.1935484,    0.0322581,    0.0000000 ]
  distance_from_gamma:  0.084321741
  weight: 12   
  band:
  - # 1
    frequency:     4.8544213892
  - # 2
    frequency:     9.6347700343
  - # 3
    frequency:    17.6030009341
  - # 4
    frequency:    24.9164447667
  - # 5
    frequency:    44.3673410265
  - # 6
    frequency:    44.8320366550

- q-position: [    0.2258065,    0.0322581,    0.0000000 ]
  distance_from_gamma:  0.099309992
  weight: 12   
  band:
  - # 1
    frequency:     5.8271797438
  - # 2
    frequency:    11.1291844338
  - # 3
    frequency:    20.5499647167
  - # 4
    frequency:    24.4446987146
  - # 5
    frequency:    44.1317399128
  - # 6
    frequency:    44.9607721302

- q-position: [    0.2580645,    0.0322581,    0.0000000 ]
  distance_from_gamma:  0.114339463
  weight: 12   
  band:
  - # 1
    frequency:     6.8426946584
  - # 2
    frequency:    12.5557725201
  - # 3
    frequency:    23.3912455109
  - # 4
    frequency:    23.8983214991
  - # 5
    frequency:    43.8750599594
  - # 6
    frequency:    45.0298480664

- q-position: [    0.2903226,    0.0322581,    0.0000000 ]
  distance_from_gamma:  0.129395791
  weight: 12   
  band:
  - # 1
    frequency:     7.8926301809
  - # 2
    frequency:    13.8960581211
  - # 3
    frequency:    23.2812027091
  - # 4
    frequency:    26.1072186485
  - # 5
    frequency:    43.6064493347
  - # 6
    frequency:    45.0091839908

- q-position: [    0.3225806,    0.0322581,    0.0000000 ]
  distance_from_gamma:  0.144470580
  weight: 12   
  band:
  - # 1
    frequency:     8.9647295578
  - # 2
    frequency:    15.1289930346
  - # 3
    frequency:    22.5999745492
  - # 4
    frequency:    28.6801574287
  - # 5
    frequency:    43.3359584391
  - # 6
    frequency:    44.8717333874

- q-position: [    0.3548387,    0.0322581,    0.0000000 ]
  distance_from_gamma:  0.159558597
  weight: 12   
  band:
  - # 1
    frequency:    10.0425776340
  - # 2
    frequency:    16.2310673360
  - # 3
    frequency:    21.8652744012
  - # 4
    frequency:    31.0938886513
  - # 5
    frequency:    43.0759110683
  - # 6
    frequency:    44.5933229322

- q-position: [    0.3870968,    0.0322581,    0.0000000 ]
  distance_from_gamma:  0.174656415
  weight: 12   
  band:
  - # 1
    frequency:    11.1036988165
  - # 2
    frequency:    17.1768843294
  - # 3
    frequency:    21.0943047871
  - # 4
    frequency:    33.3337487159
  - # 5
    frequency:    42.8408745992
  - # 6
    frequency:    44.1532659990

- q-position: [    0.4193548,    0.0322581,    0.0000000 ]
  distance_from_gamma:  0.189761693
  weight: 12   
  band:
  - # 1
    frequency:    12.1140407171
  - # 2
    frequency:    17.9403846308
  - # 3
    frequency:    20.3166742130
  - # 4
    frequency:    35.3865347836
  - # 5
    frequency:    42.6467946818
  - # 6
    frequency:    43.5350999269

- q-position: [    0.4516129,    0.0322581,    0.0000000 ]
  distance_from_gamma:  0.204872782
  weight: 12   
  band:
  - # 1
    frequency:    13.0142536693
  - # 2
    frequency:    18.4968475948
  - # 3
    frequency:    19.5881860115
  - # 4
    frequency:    37.2398128173
  - # 5
    frequency:    42.5074449904
  - # 6
    frequency:    42.7297268642

- q-position: [    0.4838710,    0.0322581,    0.0000000 ]
  distance_from_gamma:  0.219988485
  weight: 12   
  band:
  - # 1
    frequency:    13.6914613159
  - # 2
    frequency:    18.8255728438
  - # 3
    frequency:    19.0189783347
  - # 4
    frequency:    38.8759542412
  - # 5
    frequency:    41.7275269938
  - # 6
    frequency:    42.4463225488

- q-position: [    0.5161290,    0.0322581,    0.0000000 ]
  distance_from_gamma:  0.235107911
  weight: 6    
  band:
  - # 1
    frequency:    13.9640250414
  - # 2
    frequency:    18.7886125844
  - # 3
    frequency:    18.9127497344
  - # 4
    frequency:    40.0707695914
  - # 5
    frequency:    40.7539680675
  - # 6
    frequency:    42.4600847555

- q-position: [    0.1290323,    0.0645161,    0.0000000 ]
  distance_from_gamma:  0.052462542
  weight: 6    
  band:
  - # 1
    frequency:     2.7728172283
  - # 2
    frequency:     6.4926915351
  - # 3
    frequency:    10.7767553583
  - # 4
    frequency:    25.6738417094
  - # 5
    frequency:    44.3472782165
  - # 6
    frequency:    44.8586271475

- q-position: [    0.1612903,    0.0645161,    0.0000000 ]
  distance_from_gamma:  0.066013918
  weight: 12   
  band:
  - # 1
    frequency:     3.6342722925
  - # 2
    frequency:     8.1777669745
  - # 3
    frequency:    13.5298092707
  - # 4
    frequency:    25.3877354603
  - # 5
    frequency:    44.3612539456
  - # 6
    frequency:    44.7910660983

- q-position: [    0.1935484,    0.0645161,    0.0000000 ]
  distance_from_gamma:  0.080137858
  weight: 12   
  band:
  - # 1
    frequency:     4.5232159607
  - # 2
    frequency:     9.7794717877
  - # 3
    frequency:    16.3798390261
  - # 4
    frequency:    25.0276123977
  - # 5
    frequency:    44.2235392637
  - # 6
    frequency:    44.8578152853

- q-position: [    0.2258065,    0.0645161,    0.0000000 ]
  distance_from_gamma:  0.094578194
  weight: 12   
  band:
  - # 1
    frequency:     5.4509629897
  - # 2
    frequency:    11.3107271995
  - # 3
    frequency:    19.2303858361
  - # 4
    frequency:    24.5938109825
  - # 5
    frequency:    44.0085865975
  - # 6
    frequency:    44.9636801154

- q-position: [    0.2580645,    0.0645161,    0.0000000 ]
  distance_from_gamma:  0.109209492
  weight: 12   
  band:
  - # 1
    frequency:     6.4205587835
  - # 2
    frequency:    12.7681931358
  - # 3
    frequency:    22.0273542190
  - # 4
    frequency:    24.0874846341
  - # 5
    frequency:    43.7657057077
  - # 6
    frequency:    45.0374525252

- q-position: [    0.2903226,    0.0645161,    0.0000000 ]
  distance_from_gamma:  0.123964153
  weight: 12   
  band:
  - # 1
    frequency:     7.4288370962
  - # 2
    frequency:    14.1400655809
  - # 3
    frequency:    23.5112097149
  - # 4
    frequency:    24.7352976747
  - # 5
    frequency:    43.5126314517
  - # 6
    frequency:    45.0403338372

- q-position: [    0.3225806,    0.0645161,    0.0000000 ]
  distance_from_gamma:  0.138802843
  weight: 12   
  band:
  - # 1
    frequency:     8.4675585105
  - # 2
    frequency:    15.4094772911
  - # 3
    frequency:    22.8696877850
  - # 4
    frequency:    27.3276963270
  - # 5
    frequency:    43.2609769784
  - # 6
    frequency:    44.9423004696

- q-position: [    0.3548387,    0.0645161,    0.0000000 ]
  distance_from_gamma:  0.153701226
  weight: 12   
  band:
  - # 1
    frequency:     9.5238634315
  - # 2
    frequency:    16.5558449281
  - # 3
    frequency:    22.1707319294
  - # 4
    frequency:    29.7829764007
  - # 5
    frequency:    43.0223070178
  - # 6
    frequency:    44.7174954780

- q-position: [    0.3870968,    0.0645161,    0.0000000 ]
  distance_from_gamma:  0.168643482
  weight: 12   
  band:
  - # 1
    frequency:    10.5795559159
  - # 2
    frequency:    17.5557390940
  - # 3
    frequency:    21.4270364257
  - # 4
    frequency:    32.0828338973
  - # 5
    frequency:    42.8095538692
  - # 6
    frequency:    44.3437360659

- q-position: [    0.4193548,    0.0645161,    0.0000000 ]
  distance_from_gamma:  0.183618902
  weight: 12   
  band:
  - # 1
    frequency:    11.6079878213
  - # 2
    frequency:    18.3840202763
  - # 3
    frequency:    20.6599618987
  - # 4
    frequency:    34.2114833513
  - # 5
    frequency:    42.6369240000
  - # 6
    frequency:    43.8028251866

- q-position: [    0.4516129,    0.0645161,    0.0000000 ]
  distance_from_gamma:  0.198619984
  weight: 12   
  band:
  - # 1
    frequency:    12.5655656334
  - # 2
    frequency:    19.0156185572
  - # 3
    frequency:    19.9083637708
  - # 4
    frequency:    36.1550610780
  - # 5
    frequency:    42.5187022855
  - # 6
    frequency:    43.0813090717

- q-position: [    0.4838710,    0.0645161,    0.0000000 ]
  distance_from_gamma:  0.213641322
  weight: 12   
  band:
  - # 1
    frequency:    13.3716676063
  - # 2
    frequency:    19.2487652922
  - # 3
    frequency:    19.4280439355
  - # 4
    frequency:    37.8995889984
  - # 5
    frequency:    42.1705106161
  - # 6
    frequency:    42.4694754511

- q-position: [    0.5161290,    0.0645161,    0.0000000 ]
  distance_from_gamma:  0.228678926
  weight: 12   
  band:
  - # 1
    frequency:    13.8774244443
  - # 2
    frequency:    18.8265274684
  - # 3
    frequency:    19.6043146009
  - # 4
    frequency:    39.4093542936
  - # 5
    frequency:    41.0956888440
  - # 6
    frequency:    42.4943105715

- q-position: [    0.1935484,    0.0967742,    0.0000000 ]
  distance_from_gamma:  0.078693813
  weight: 6    
  band:
  - # 1
    frequency:     4.2281658922
  - # 2
    frequency:     9.8126211635
  - # 3
    frequency:    15.8242653309
  - # 4
    frequency:    25.0850313490
  - # 5
    frequency:    44.0959253916
  - # 6
    frequency:    44.9322311535

- q-position: [    0.2258065,    0.0967742,    0.0000000 ]
  distance_from_gamma:  0.092121197
  weight: 12   
  band:
  - # 1
    frequency:     5.1212254915
  - # 2
    frequency:    11.5135771668
  - # 3
    frequency:    18.3627757841
  - # 4
    frequency:    24.6870072140
  - # 5
    frequency:    43.8889567577
  - # 6
    frequency:    45.0066860208

- q-position: [    0.2580645,    0.0967742,    0.0000000 ]
  distance_from_gamma:  0.106012421
  weight: 12   
  band:
  - # 1
    frequency:     6.0486480575
  - # 2
    frequency:    13.1019507428
  - # 3
    frequency:    20.9556756414
  - # 4
    frequency:    24.2192912025
  - # 5
    frequency:    43.6538949475
  - # 6
    frequency:    45.0679033454

- q-position: [    0.2903226,    0.0967742,    0.0000000 ]
  distance_from_gamma:  0.120206787
  weight: 12   
  band:
  - # 1
    frequency:     7.0136821058
  - # 2
    frequency:    14.5781007528
  - # 3
    frequency:    23.5366846171
  - # 4
    frequency:    23.6835727467
  - # 5
    frequency:    43.4122600282
  - # 6
    frequency:    45.0746392925

- q-position: [    0.3225806,    0.0967742,    0.0000000 ]
  distance_from_gamma:  0.134608430
  weight: 12   
  band:
  - # 1
    frequency:     8.0132262641
  - # 2
    frequency:    15.9360871850
  - # 3
    frequency:    23.0830557964
  - # 4
    frequency:    26.0585925943
  - # 5
    frequency:    43.1770771216
  - # 6
    frequency:    44.9953514491

- q-position: [    0.3548387,    0.0967742,    0.0000000 ]
  distance_from_gamma:  0.149157324
  weight: 12   
  band:
  - # 1
    frequency:     9.0387309567
  - # 2
    frequency:    17.1635212173
  - # 3
    frequency:    22.4232940026
  - # 4
    frequency:    28.4864510250
  - # 5
    frequency:    42.9592956213
  - # 6
    frequency:    44.8033915802

- q-position: [    0.3870968,    0.0967742,    0.0000000 ]
  distance_from_gamma:  0.163814238
  weight: 12   
  band:
  - # 1
    frequency:    10.0762844915
  - # 2
    frequency:    18.2428850061
  - # 3
    frequency:    21.7134894578
  - # 4
    frequency:    30.7931609904
  - # 5
    frequency:    42.7700594201
  - # 6
    frequency:    44.4759359409

- q-position: [    0.4193548,    0.0967742,    0.0000000 ]
  distance_from_gamma:  0.178552575
  weight: 12   
  band:
  - # 1
    frequency:    11.1051150609
  - # 2
    frequency:    19.1530643147
  - # 3
    frequency:    20.9690104524
  - # 4
    frequency:    32.9569614817
  - # 5
    frequency:    42.6212076325
  - # 6
    frequency:    43.9940674847

- q-position: [    0.4516129,    0.0967742,    0.0000000 ]
  distance_from_gamma:  0.193353714
  weight: 12   
  band:
  - # 1
    frequency:    12.0926228677
  - # 2
    frequency:    19.8712347680
  - # 3
    frequency:    20.2170110224
  - # 4
    frequency:    34.9599594353
  - # 5
    frequency:    42.5244786229
  - # 6
    frequency:    43.3434215931

- q-position: [    0.4838710,    0.0967742,    0.0000000 ]
  distance_from_gamma:  0.208204264
  weight: 12   
  band:
  - # 1
    frequency:    12.9815110190
  - # 2
    frequency:    19.5096358469
  - # 3
    frequency:    20.3753309162
  - # 4
    frequency:    36.7866648285
  - # 5
    frequency:    42.4650257615
  - # 6
    frequency:    42.5402074657

- q-position: [    0.5161290,    0.0967742,    0.0000000 ]
  distance_from_gamma:  0.223094357
  weight: 12   
  band:
  - # 1
    frequency:    13.6624808929
  - # 2
    frequency:    18.9514372279
  - # 3
    frequency:    20.6470049381
  - # 4
    frequency:    38.4181415789
  - # 5
    frequency:    41.5036819836
  - # 6
    frequency:    42.5324593955

- q-position: [    0.5483871,    0.0967742,    0.0000000 ]
  distance_from_gamma:  0.238016571
  weight: 6    
  band:
  - # 1
    frequency:    13.9558841504
  - # 2
    frequency:    18.7177190497
  - # 3
    frequency:    20.6745234740
  - # 4
    frequency:    39.6901040191
  - # 5
    frequency:    40.4749184671
  - # 6
    frequency:    42.6416960779

- q-position: [    0.2580645,    0.1290323,    0.0000000 ]
  distance_from_gamma:  0.104925085
  weight: 6    
  band:
  - # 1
    frequency:     5.7494571220
  - # 2
    frequency:    13.1881485498
  - # 3
    frequency:    20.4764807868
  - # 4
    frequency:    24.2902104630
  - # 5
    frequency:    43.5581749849
  - # 6
    frequency:    45.1155965597

- q-position: [    0.2903226,    0.1290323,    0.0000000 ]
  distance_from_gamma:  0.118283353
  weight: 12   
  band:
  - # 1
    frequency:     6.6701106550
  - # 2
    frequency:    14.8889247460
  - # 3
    frequency:    22.7586692438
  - # 4
    frequency:    23.7938296511
  - # 5
    frequency:    43.3162718672
  - # 6
    frequency:    45.1159022767

- q-position: [    0.3225806,    0.1290323,    0.0000000 ]
  distance_from_gamma:  0.132027837
  weight: 12   
  band:
  - # 1
    frequency:     7.6253051876
  - # 2
    frequency:    16.4416190348
  - # 3
    frequency:    23.2343789464
  - # 4
    frequency:    25.0645543681
  - # 5
    frequency:    43.0883434639
  - # 6
    frequency:    45.0418803204

- q-position: [    0.3548387,    0.1290323,    0.0000000 ]
  distance_from_gamma:  0.146049538
  weight: 12   
  band:
  - # 1
    frequency:     8.6113573872
  - # 2
    frequency:    17.8352532483
  - # 3
    frequency:    22.6156587575
  - # 4
    frequency:    27.3478077156
  - # 5
    frequency:    42.8850752141
  - # 6
    frequency:    44.8670433579

- q-position: [    0.3870968,    0.1290323,    0.0000000 ]
  distance_from_gamma:  0.160275716
  weight: 12   
  band:
  - # 1
    frequency:     9.6189088887
  - # 2
    frequency:    19.0587665374
  - # 3
    frequency:    21.9441290546
  - # 4
    frequency:    29.5694446793
  - # 5
    frequency:    42.7159582109
  - # 6
    frequency:    44.5688072406

- q-position: [    0.4193548,    0.1290323,    0.0000000 ]
  distance_from_gamma:  0.174656412
  weight: 12   
  band:
  - # 1
    frequency:    10.6324160196
  - # 2
    frequency:    20.0981208403
  - # 3
    frequency:    21.2306519441
  - # 4
    frequency:    31.6975487041
  - # 5
    frequency:    42.5902766101
  - # 6
    frequency:    44.1283888883

- q-position: [    0.4516129,    0.1290323,    0.0000000 ]
  distance_from_gamma:  0.189156389
  weight: 12   
  band:
  - # 1
    frequency:    11.6274753546
  - # 2
    frequency:    20.4940987758
  - # 3
    frequency:    20.9363591248
  - # 4
    frequency:    33.7062641597
  - # 5
    frequency:    42.5169337285
  - # 6
    frequency:    43.5312139325

- q-position: [    0.4838710,    0.1290323,    0.0000000 ]
  distance_from_gamma:  0.203750181
  weight: 12   
  band:
  - # 1
    frequency:    12.5630941613
  - # 2
    frequency:    19.7696861734
  - # 3
    frequency:    21.5553334507
  - # 4
    frequency:    35.5744472272
  - # 5
    frequency:    42.5016905188
  - # 6
    frequency:    42.7693507341

- q-position: [    0.5161290,    0.1290323,    0.0000000 ]
  distance_from_gamma:  0.218418985
  weight: 12   
  band:
  - # 1
    frequency:    13.3627200800
  - # 2
    frequency:    19.1282712467
  - # 3
    frequency:    21.9384008311
  - # 4
    frequency:    37.2827217052
  - # 5
    frequency:    41.8309296383
  - # 6
    frequency:    42.5584141252

- q-position: [    0.5483871,    0.1290323,    0.0000000 ]
  distance_from_gamma:  0.233148642
  weight: 12   
  band:
  - # 1
    frequency:    13.8823820011
  - # 2
    frequency:    18.7083436613
  - # 3
    frequency:    22.0734031756
  - # 4
    frequency:    38.7915176976
  - # 5
    frequency:    40.7544094486
  - # 6
    frequency:    42.6743702499

- q-position: [    0.3225806,    0.1612903,    0.0000000 ]
  distance_from_gamma:  0.131156356
  weight: 6    
  band:
  - # 1
    frequency:     7.3347270994
  - # 2
    frequency:    16.5935360002
  - # 3
    frequency:    23.3176438793
  - # 4
    frequency:    24.6240413082
  - # 5
    frequency:    43.0027005669
  - # 6
    frequency:    45.0828293211

- q-position: [    0.3548387,    0.1612903,    0.0000000 ]
  distance_from_gamma:  0.144470577
  weight: 12   
  band:
  - # 1
    frequency:     8.2724458833
  - # 2
    frequency:    18.2662252343
  - # 3
    frequency:    22.7404543260
  - # 4
    frequency:    26.6100336516
  - # 5
    frequency:    42.8024465817
  - # 6
    frequency:    44.9152140343

- q-position: [    0.3870968,    0.1612903,    0.0000000 ]
  distance_from_gamma:  0.158114595
  weight: 12   
  band:
  - # 1
    frequency:     9.2381186708
  - # 2
    frequency:    19.7445202337
  - # 3
    frequency:    22.1097679779
  - # 4
    frequency:    28.6039933736
  - # 5
    frequency:    42.6447095842
  - # 6
    frequency:    44.6340193147

- q-position: [    0.4193548,    0.1612903,    0.0000000 ]
  distance_from_gamma:  0.172009949
  weight: 12   
  band:
  - # 1
    frequency:    10.2211781187
  - # 2
    frequency:    21.0069518075
  - # 3
    frequency:    21.4329929648
  - # 4
    frequency:    30.5756027769
  - # 5
    frequency:    42.5366563239
  - # 6
    frequency:    44.2211599251

- q-position: [    0.4516129,    0.1612903,    0.0000000 ]
  distance_from_gamma:  0.186100349
  weight: 12   
  band:
  - # 1
    frequency:    11.2038824634
  - # 2
    frequency:    20.7229558849
  - # 3
    frequency:    22.0379625342
  - # 4
    frequency:    32.4941551679
  - # 5
    frequency:    42.4841753872
  - # 6
    frequency:    43.6627054545

- q-position: [    0.4838710,    0.1612903,    0.0000000 ]
  distance_from_gamma:  0.200344645
  weight: 12   
  band:
  - # 1
    frequency:    12.1569524607
  - # 2
    frequency:    20.0030817878
  - # 3
    frequency:    22.8244889796
  - # 4
    frequency:    34.3309605212
  - # 5
    frequency:    42.4913919801
  - # 6
    frequency:    42.9494586121

- q-position: [    0.5161290,    0.1612903,    0.0000000 ]
  distance_from_gamma:  0.214712211
  weight: 12   
  band:
  - # 1
    frequency:    13.0277779730
  - # 2
    frequency:    19.3197334242
  - # 3
    frequency:    23.3551823044
  - # 4
    frequency:    36.0597062600
  - # 5
    frequency:    42.0784195313
  - # 6
    frequency:    42.5595389630

- q-position: [    0.5483871,    0.1612903,    0.0000000 ]
  distance_from_gamma:  0.229179863
  weight: 12   
  band:
  - # 1
    frequency:    13.7135795229
  - # 2
    frequency:    18.7693586332
  - # 3
    frequency:    23.6215187123
  - # 4
    frequency:    37.6495427389
  - # 5
    frequency:    41.0603033576
  - # 6
    frequency:    42.6855983675

- q-position: [    0.5806452,    0.1612903,    0.0000000 ]
  distance_from_gamma:  0.243729781
  weight: 6    
  band:
  - # 1
    frequency:    14.0359685850
  - # 2
    frequency:    18.5240857364
  - # 3
    frequency:    23.6195501989
  - # 4
    frequency:    38.9395954912
  - # 5
    frequency:    40.0447041265
  - # 6
    frequency:    42.8614461026

- q-position: [    0.3870968,    0.1935484,    0.0000000 ]
  distance_from_gamma:  0.157387627
  weight: 6    
  band:
  - # 1
    frequency:     8.9678232061
  - # 2
    frequency:    19.9776712420
  - # 3
    frequency:    22.2020250790
  - # 4
    frequency:    28.1777169164
  - # 5
    frequency:    42.5596801831
  - # 6
    frequency:    44.6738765801

- q-position: [    0.4193548,    0.1935484,    0.0000000 ]
  distance_from_gamma:  0.170671329
  weight: 12   
  band:
  - # 1
    frequency:     9.9054251473
  - # 2
    frequency:    21.5655664880
  - # 3
    frequency:    21.5801434783
  - # 4
    frequency:    29.8405257993
  - # 5
    frequency:    42.4591362545
  - # 6
    frequency:    44.2793127997

- q-position: [    0.4516129,    0.1935484,    0.0000000 ]
  distance_from_gamma:  0.184242394
  weight: 12   
  band:
  - # 1
    frequency:    10.8568981933
  - # 2
    frequency:    20.8897445881
  - # 3
    frequency:    22.9261787542
  - # 4
    frequency:    31.5170316575
  - # 5
    frequency:    42.4202632605
  - # 6
    frequency:    43.7488973974

- q-position: [    0.4838710,    0.1935484,    0.0000000 ]
  distance_from_gamma:  0.198041755
  weight: 12   
  band:
  - # 1
    frequency:    11.8018935067
  - # 2
    frequency:    20.1896177824
  - # 3
    frequency:    23.9849885085
  - # 4
    frequency:    33.1921559722
  - # 5
    frequency:    42.4427348122
  - # 6
    frequency:    43.0757217005

- q-position: [    0.5161290,    0.1935484,    0.0000000 ]
  distance_from_gamma:  0.212024842
  weight: 12   
  band:
  - # 1
    frequency:    12.7048875553
  - # 2
    frequency:    19.4944311494
  - # 3
    frequency:    24.7415936277
  - # 4
    frequency:    34.8400569338
  - # 5
    frequency:    42.2458660743
  - # 6
    frequency:    42.5361476167

- q-position: [    0.5483871,    0.1935484,    0.0000000 ]
  distance_from_gamma:  0.226157578
  weight: 12   
  band:
  - # 1
    frequency:    13.4973283612
  - # 2
    frequency:    18.8659542803
  - # 3
    frequency:    25.1920635784
  - # 4
    frequency:    36.4252852750
  - # 5
    frequency:    41.2936899899
  - # 6
    frequency:    42.6681844884

- q-position: [    0.5806452,    0.1935484,    0.0000000 ]
  distance_from_gamma:  0.240413574
  weight: 12   